# vtk DataFile Version 3.0
#This file was generated by the deal.II library on 2015/5/9 at 11:19:45
ASCII
DATASET UNSTRUCTURED_GRID

POINTS 512 double
0 0 0
0.25 0 0
0 0.25 0
0.25 0.25 0
0 0 0.25
0.25 0 0.25
0 0.25 0.25
0.25 0.25 0.25
0.25 0 0
0.5 0 0
0.25 0.25 0
0.5 0.25 0
0.25 0 0.25
0.5 0 0.25
0.25 0.25 0.25
0.5 0.25 0.25
0 0.25 0
0.25 0.25 0
0 0.5 0
0.25 0.5 0
0 0.25 0.25
0.25 0.25 0.25
0 0.5 0.25
0.25 0.5 0.25
0.25 0.25 0
0.5 0.25 0
0.25 0.5 0
0.5 0.5 0
0.25 0.25 0.25
0.5 0.25 0.25
0.25 0.5 0.25
0.5 0.5 0.25
0 0 0.25
0.25 0 0.25
0 0.25 0.25
0.25 0.25 0.25
0 0 0.5
0.25 0 0.5
0 0.25 0.5
0.25 0.25 0.5
0.25 0 0.25
0.5 0 0.25
0.25 0.25 0.25
0.5 0.25 0.25
0.25 0 0.5
0.5 0 0.5
0.25 0.25 0.5
0.5 0.25 0.5
0 0.25 0.25
0.25 0.25 0.25
0 0.5 0.25
0.25 0.5 0.25
0 0.25 0.5
0.25 0.25 0.5
0 0.5 0.5
0.25 0.5 0.5
0.25 0.25 0.25
0.5 0.25 0.25
0.25 0.5 0.25
0.5 0.5 0.25
0.25 0.25 0.5
0.5 0.25 0.5
0.25 0.5 0.5
0.5 0.5 0.5
0.5 0 0
0.75 0 0
0.5 0.25 0
0.75 0.25 0
0.5 0 0.25
0.75 0 0.25
0.5 0.25 0.25
0.75 0.25 0.25
0.75 0 0
1 0 0
0.75 0.25 0
1 0.25 0
0.75 0 0.25
1 0 0.25
0.75 0.25 0.25
1 0.25 0.25
0.5 0.25 0
0.75 0.25 0
0.5 0.5 0
0.75 0.5 0
0.5 0.25 0.25
0.75 0.25 0.25
0.5 0.5 0.25
0.75 0.5 0.25
0.75 0.25 0
1 0.25 0
0.75 0.5 0
1 0.5 0
0.75 0.25 0.25
1 0.25 0.25
0.75 0.5 0.25
1 0.5 0.25
0.5 0 0.25
0.75 0 0.25
0.5 0.25 0.25
0.75 0.25 0.25
0.5 0 0.5
0.75 0 0.5
0.5 0.25 0.5
0.75 0.25 0.5
0.75 0 0.25
1 0 0.25
0.75 0.25 0.25
1 0.25 0.25
0.75 0 0.5
1 0 0.5
0.75 0.25 0.5
1 0.25 0.5
0.5 0.25 0.25
0.75 0.25 0.25
0.5 0.5 0.25
0.75 0.5 0.25
0.5 0.25 0.5
0.75 0.25 0.5
0.5 0.5 0.5
0.75 0.5 0.5
0.75 0.25 0.25
1 0.25 0.25
0.75 0.5 0.25
1 0.5 0.25
0.75 0.25 0.5
1 0.25 0.5
0.75 0.5 0.5
1 0.5 0.5
0 0.5 0
0.25 0.5 0
0 0.75 0
0.25 0.75 0
0 0.5 0.25
0.25 0.5 0.25
0 0.75 0.25
0.25 0.75 0.25
0.25 0.5 0
0.5 0.5 0
0.25 0.75 0
0.5 0.75 0
0.25 0.5 0.25
0.5 0.5 0.25
0.25 0.75 0.25
0.5 0.75 0.25
0 0.75 0
0.25 0.75 0
0 1 0
0.25 1 0
0 0.75 0.25
0.25 0.75 0.25
0 1 0.25
0.25 1 0.25
0.25 0.75 0
0.5 0.75 0
0.25 1 0
0.5 1 0
0.25 0.75 0.25
0.5 0.75 0.25
0.25 1 0.25
0.5 1 0.25
0 0.5 0.25
0.25 0.5 0.25
0 0.75 0.25
0.25 0.75 0.25
0 0.5 0.5
0.25 0.5 0.5
0 0.75 0.5
0.25 0.75 0.5
0.25 0.5 0.25
0.5 0.5 0.25
0.25 0.75 0.25
0.5 0.75 0.25
0.25 0.5 0.5
0.5 0.5 0.5
0.25 0.75 0.5
0.5 0.75 0.5
0 0.75 0.25
0.25 0.75 0.25
0 1 0.25
0.25 1 0.25
0 0.75 0.5
0.25 0.75 0.5
0 1 0.5
0.25 1 0.5
0.25 0.75 0.25
0.5 0.75 0.25
0.25 1 0.25
0.5 1 0.25
0.25 0.75 0.5
0.5 0.75 0.5
0.25 1 0.5
0.5 1 0.5
0.5 0.5 0
0.75 0.5 0
0.5 0.75 0
0.75 0.75 0
0.5 0.5 0.25
0.75 0.5 0.25
0.5 0.75 0.25
0.75 0.75 0.25
0.75 0.5 0
1 0.5 0
0.75 0.75 0
1 0.75 0
0.75 0.5 0.25
1 0.5 0.25
0.75 0.75 0.25
1 0.75 0.25
0.5 0.75 0
0.75 0.75 0
0.5 1 0
0.75 1 0
0.5 0.75 0.25
0.75 0.75 0.25
0.5 1 0.25
0.75 1 0.25
0.75 0.75 0
1 0.75 0
0.75 1 0
1 1 0
0.75 0.75 0.25
1 0.75 0.25
0.75 1 0.25
1 1 0.25
0.5 0.5 0.25
0.75 0.5 0.25
0.5 0.75 0.25
0.75 0.75 0.25
0.5 0.5 0.5
0.75 0.5 0.5
0.5 0.75 0.5
0.75 0.75 0.5
0.75 0.5 0.25
1 0.5 0.25
0.75 0.75 0.25
1 0.75 0.25
0.75 0.5 0.5
1 0.5 0.5
0.75 0.75 0.5
1 0.75 0.5
0.5 0.75 0.25
0.75 0.75 0.25
0.5 1 0.25
0.75 1 0.25
0.5 0.75 0.5
0.75 0.75 0.5
0.5 1 0.5
0.75 1 0.5
0.75 0.75 0.25
1 0.75 0.25
0.75 1 0.25
1 1 0.25
0.75 0.75 0.5
1 0.75 0.5
0.75 1 0.5
1 1 0.5
0 0 0.5
0.25 0 0.5
0 0.25 0.5
0.25 0.25 0.5
0 0 0.75
0.25 0 0.75
0 0.25 0.75
0.25 0.25 0.75
0.25 0 0.5
0.5 0 0.5
0.25 0.25 0.5
0.5 0.25 0.5
0.25 0 0.75
0.5 0 0.75
0.25 0.25 0.75
0.5 0.25 0.75
0 0.25 0.5
0.25 0.25 0.5
0 0.5 0.5
0.25 0.5 0.5
0 0.25 0.75
0.25 0.25 0.75
0 0.5 0.75
0.25 0.5 0.75
0.25 0.25 0.5
0.5 0.25 0.5
0.25 0.5 0.5
0.5 0.5 0.5
0.25 0.25 0.75
0.5 0.25 0.75
0.25 0.5 0.75
0.5 0.5 0.75
0 0 0.75
0.25 0 0.75
0 0.25 0.75
0.25 0.25 0.75
0 0 1
0.25 0 1
0 0.25 1
0.25 0.25 1
0.25 0 0.75
0.5 0 0.75
0.25 0.25 0.75
0.5 0.25 0.75
0.25 0 1
0.5 0 1
0.25 0.25 1
0.5 0.25 1
0 0.25 0.75
0.25 0.25 0.75
0 0.5 0.75
0.25 0.5 0.75
0 0.25 1
0.25 0.25 1
0 0.5 1
0.25 0.5 1
0.25 0.25 0.75
0.5 0.25 0.75
0.25 0.5 0.75
0.5 0.5 0.75
0.25 0.25 1
0.5 0.25 1
0.25 0.5 1
0.5 0.5 1
0.5 0 0.5
0.75 0 0.5
0.5 0.25 0.5
0.75 0.25 0.5
0.5 0 0.75
0.75 0 0.75
0.5 0.25 0.75
0.75 0.25 0.75
0.75 0 0.5
1 0 0.5
0.75 0.25 0.5
1 0.25 0.5
0.75 0 0.75
1 0 0.75
0.75 0.25 0.75
1 0.25 0.75
0.5 0.25 0.5
0.75 0.25 0.5
0.5 0.5 0.5
0.75 0.5 0.5
0.5 0.25 0.75
0.75 0.25 0.75
0.5 0.5 0.75
0.75 0.5 0.75
0.75 0.25 0.5
1 0.25 0.5
0.75 0.5 0.5
1 0.5 0.5
0.75 0.25 0.75
1 0.25 0.75
0.75 0.5 0.75
1 0.5 0.75
0.5 0 0.75
0.75 0 0.75
0.5 0.25 0.75
0.75 0.25 0.75
0.5 0 1
0.75 0 1
0.5 0.25 1
0.75 0.25 1
0.75 0 0.75
1 0 0.75
0.75 0.25 0.75
1 0.25 0.75
0.75 0 1
1 0 1
0.75 0.25 1
1 0.25 1
0.5 0.25 0.75
0.75 0.25 0.75
0.5 0.5 0.75
0.75 0.5 0.75
0.5 0.25 1
0.75 0.25 1
0.5 0.5 1
0.75 0.5 1
0.75 0.25 0.75
1 0.25 0.75
0.75 0.5 0.75
1 0.5 0.75
0.75 0.25 1
1 0.25 1
0.75 0.5 1
1 0.5 1
0 0.5 0.5
0.25 0.5 0.5
0 0.75 0.5
0.25 0.75 0.5
0 0.5 0.75
0.25 0.5 0.75
0 0.75 0.75
0.25 0.75 0.75
0.25 0.5 0.5
0.5 0.5 0.5
0.25 0.75 0.5
0.5 0.75 0.5
0.25 0.5 0.75
0.5 0.5 0.75
0.25 0.75 0.75
0.5 0.75 0.75
0 0.75 0.5
0.25 0.75 0.5
0 1 0.5
0.25 1 0.5
0 0.75 0.75
0.25 0.75 0.75
0 1 0.75
0.25 1 0.75
0.25 0.75 0.5
0.5 0.75 0.5
0.25 1 0.5
0.5 1 0.5
0.25 0.75 0.75
0.5 0.75 0.75
0.25 1 0.75
0.5 1 0.75
0 0.5 0.75
0.25 0.5 0.75
0 0.75 0.75
0.25 0.75 0.75
0 0.5 1
0.25 0.5 1
0 0.75 1
0.25 0.75 1
0.25 0.5 0.75
0.5 0.5 0.75
0.25 0.75 0.75
0.5 0.75 0.75
0.25 0.5 1
0.5 0.5 1
0.25 0.75 1
0.5 0.75 1
0 0.75 0.75
0.25 0.75 0.75
0 1 0.75
0.25 1 0.75
0 0.75 1
0.25 0.75 1
0 1 1
0.25 1 1
0.25 0.75 0.75
0.5 0.75 0.75
0.25 1 0.75
0.5 1 0.75
0.25 0.75 1
0.5 0.75 1
0.25 1 1
0.5 1 1
0.5 0.5 0.5
0.75 0.5 0.5
0.5 0.75 0.5
0.75 0.75 0.5
0.5 0.5 0.75
0.75 0.5 0.75
0.5 0.75 0.75
0.75 0.75 0.75
0.75 0.5 0.5
1 0.5 0.5
0.75 0.75 0.5
1 0.75 0.5
0.75 0.5 0.75
1 0.5 0.75
0.75 0.75 0.75
1 0.75 0.75
0.5 0.75 0.5
0.75 0.75 0.5
0.5 1 0.5
0.75 1 0.5
0.5 0.75 0.75
0.75 0.75 0.75
0.5 1 0.75
0.75 1 0.75
0.75 0.75 0.5
1 0.75 0.5
0.75 1 0.5
1 1 0.5
0.75 0.75 0.75
1 0.75 0.75
0.75 1 0.75
1 1 0.75
0.5 0.5 0.75
0.75 0.5 0.75
0.5 0.75 0.75
0.75 0.75 0.75
0.5 0.5 1
0.75 0.5 1
0.5 0.75 1
0.75 0.75 1
0.75 0.5 0.75
1 0.5 0.75
0.75 0.75 0.75
1 0.75 0.75
0.75 0.5 1
1 0.5 1
0.75 0.75 1
1 0.75 1
0.5 0.75 0.75
0.75 0.75 0.75
0.5 1 0.75
0.75 1 0.75
0.5 0.75 1
0.75 0.75 1
0.5 1 1
0.75 1 1
0.75 0.75 0.75
1 0.75 0.75
0.75 1 0.75
1 1 0.75
0.75 0.75 1
1 0.75 1
0.75 1 1
1 1 1

CELLS 64 576
8	0	1	3	2	4	5	7	6
8	8	9	11	10	12	13	15	14
8	16	17	19	18	20	21	23	22
8	24	25	27	26	28	29	31	30
8	32	33	35	34	36	37	39	38
8	40	41	43	42	44	45	47	46
8	48	49	51	50	52	53	55	54
8	56	57	59	58	60	61	63	62
8	64	65	67	66	68	69	71	70
8	72	73	75	74	76	77	79	78
8	80	81	83	82	84	85	87	86
8	88	89	91	90	92	93	95	94
8	96	97	99	98	100	101	103	102
8	104	105	107	106	108	109	111	110
8	112	113	115	114	116	117	119	118
8	120	121	123	122	124	125	127	126
8	128	129	131	130	132	133	135	134
8	136	137	139	138	140	141	143	142
8	144	145	147	146	148	149	151	150
8	152	153	155	154	156	157	159	158
8	160	161	163	162	164	165	167	166
8	168	169	171	170	172	173	175	174
8	176	177	179	178	180	181	183	182
8	184	185	187	186	188	189	191	190
8	192	193	195	194	196	197	199	198
8	200	201	203	202	204	205	207	206
8	208	209	211	210	212	213	215	214
8	216	217	219	218	220	221	223	222
8	224	225	227	226	228	229	231	230
8	232	233	235	234	236	237	239	238
8	240	241	243	242	244	245	247	246
8	248	249	251	250	252	253	255	254
8	256	257	259	258	260	261	263	262
8	264	265	267	266	268	269	271	270
8	272	273	275	274	276	277	279	278
8	280	281	283	282	284	285	287	286
8	288	289	291	290	292	293	295	294
8	296	297	299	298	300	301	303	302
8	304	305	307	306	308	309	311	310
8	312	313	315	314	316	317	319	318
8	320	321	323	322	324	325	327	326
8	328	329	331	330	332	333	335	334
8	336	337	339	338	340	341	343	342
8	344	345	347	346	348	349	351	350
8	352	353	355	354	356	357	359	358
8	360	361	363	362	364	365	367	366
8	368	369	371	370	372	373	375	374
8	376	377	379	378	380	381	383	382
8	384	385	387	386	388	389	391	390
8	392	393	395	394	396	397	399	398
8	400	401	403	402	404	405	407	406
8	408	409	411	410	412	413	415	414
8	416	417	419	418	420	421	423	422
8	424	425	427	426	428	429	431	430
8	432	433	435	434	436	437	439	438
8	440	441	443	442	444	445	447	446
8	448	449	451	450	452	453	455	454
8	456	457	459	458	460	461	463	462
8	464	465	467	466	468	469	471	470
8	472	473	475	474	476	477	479	478
8	480	481	483	482	484	485	487	486
8	488	489	491	490	492	493	495	494
8	496	497	499	498	500	501	503	502
8	504	505	507	506	508	509	511	510

CELL_TYPES 64
 12 12 12 12 12 12 12 12 12 12 12 12 12 12 12 12 12 12 12 12 12 12 12 12 12 12 12 12 12 12 12 12 12 12 12 12 12 12 12 12 12 12 12 12 12 12 12 12 12 12 12 12 12 12 12 12 12 12 12 12 12 12 12 12
POINT_DATA 512
SCALARS solution_0 double 1
LOOKUP_TABLE default
0 0 0 0 0 0 0.001875 0.000383222 0 0 0 0 0 0 0.000383222 0.000302174 0 0 0 0 0.001875 0.000383222 0 0.00018671 0 0 0 0 0.000383222 0.000302174 0.00018671 0.000199372 0 0 0.001875 0.000383222 0 0 0.0025 0.000542473 0 0 0.000383222 0.000302174 0 0 0.000542473 0.000403299 0.001875 0.000383222 0 0.00018671 0.0025 0.000542473 0 0.000274789 0.000383222 0.000302174 0.00018671 0.000199372 0.000542473 0.000403299 0.000274789 0.00026922 0 0 0 0 0 0 0.000302174 0.000111836 0 0 0 0 0 0 0.000111836 0 0 0 0 0 0.000302174 0.000111836 0.000199372 0.000122952 0 0 0 0 0.000111836 0 0.000122952 0 0 0 0.000302174 0.000111836 0 0 0.000403299 0.000142716 0 0 0.000111836 0 0 0 0.000142716 0 0.000302174 0.000111836 0.000199372 0.000122952 0.000403299 0.000142716 0.00026922 0.000157968 0.000111836 0 0.000122952 0 0.000142716 0 0.000157968 0 0 0 0 0 0 0.00018671 0 2.18338e-005 0 0 0 0 0.00018671 0.000199372 2.18338e-005 6.36986e-005 0 0 0 0 0 2.18338e-005 0 0 0 0 0 0 2.18338e-005 6.36986e-005 0 0 0 0.00018671 0 2.18338e-005 0 0.000274789 0 3.98808e-005 0.00018671 0.000199372 2.18338e-005 6.36986e-005 0.000274789 0.00026922 3.98808e-005 8.75443e-005 0 2.18338e-005 0 0 0 3.98808e-005 0 0 2.18338e-005 6.36986e-005 0 0 3.98808e-005 8.75443e-005 0 0 0 0 0 0 0.000199372 0.000122952 6.36986e-005 7.51316e-005 0 0 0 0 0.000122952 0 7.51316e-005 0 0 0 0 0 6.36986e-005 7.51316e-005 0 0 0 0 0 0 7.51316e-005 0 0 0 0.000199372 0.000122952 6.36986e-005 7.51316e-005 0.00026922 0.000157968 8.75443e-005 9.63716e-005 0.000122952 0 7.51316e-005 0 0.000157968 0 9.63716e-005 0 6.36986e-005 7.51316e-005 0 0 8.75443e-005 9.63716e-005 0 0 7.51316e-005 0 0 0 9.63716e-005 0 0 0 0 0 0.0025 0.000542473 0 0 0.001875 0.000383222 0 0 0.000542473 0.000403299 0 0 0.000383222 0.000302174 0.0025 0.000542473 0 0.000274789 0.001875 0.000383222 0 0.00018671 0.000542473 0.000403299 0.000274789 0.00026922 0.000383222 0.000302174 0.00018671 0.000199372 0 0 0.001875 0.000383222 0 0 0 0 0 0 0.000383222 0.000302174 0 0 0 0 0.001875 0.000383222 0 0.00018671 0 0 0 0 0.000383222 0.000302174 0.00018671 0.000199372 0 0 0 0 0 0 0.000403299 0.000142716 0 0 0.000302174 0.000111836 0 0 0.000142716 0 0 0 0.000111836 0 0.000403299 0.000142716 0.00026922 0.000157968 0.000302174 0.000111836 0.000199372 0.000122952 0.000142716 0 0.000157968 0 0.000111836 0 0.000122952 0 0 0 0.000302174 0.000111836 0 0 0 0 0 0 0.000111836 0 0 0 0 0 0.000302174 0.000111836 0.000199372 0.000122952 0 0 0 0 0.000111836 0 0.000122952 0 0 0 0 0 0 0.000274789 0 3.98808e-005 0 0.00018671 0 2.18338e-005 0.000274789 0.00026922 3.98808e-005 8.75443e-005 0.00018671 0.000199372 2.18338e-005 6.36986e-005 0 3.98808e-005 0 0 0 2.18338e-005 0 0 3.98808e-005 8.75443e-005 0 0 2.18338e-005 6.36986e-005 0 0 0 0.00018671 0 2.18338e-005 0 0 0 0 0.00018671 0.000199372 2.18338e-005 6.36986e-005 0 0 0 0 0 2.18338e-005 0 0 0 0 0 0 2.18338e-005 6.36986e-005 0 0 0 0 0 0 0.00026922 0.000157968 8.75443e-005 9.63716e-005 0.000199372 0.000122952 6.36986e-005 7.51316e-005 0.000157968 0 9.63716e-005 0 0.000122952 0 7.51316e-005 0 8.75443e-005 9.63716e-005 0 0 6.36986e-005 7.51316e-005 0 0 9.63716e-005 0 0 0 7.51316e-005 0 0 0 0.000199372 0.000122952 6.36986e-005 7.51316e-005 0 0 0 0 0.000122952 0 7.51316e-005 0 0 0 0 0 6.36986e-005 7.51316e-005 0 0 0 0 0 0 7.51316e-005 0 0 0 0 0 0 0 
SCALARS solution_1 double 1
LOOKUP_TABLE default
0 0 0 0 0 0 0 -2.39371e-005 0 0 0 0 0 0 -2.39371e-005 -3.0434e-005 0 0 0 0 0 -2.39371e-005 0 0.000219878 0 0 0 0 -2.39371e-005 -3.0434e-005 0.000219878 0.000103813 0 0 0 -2.39371e-005 0 0 0 -1.85085e-005 0 0 -2.39371e-005 -3.0434e-005 0 0 -1.85085e-005 -2.84e-005 0 -2.39371e-005 0 0.000219878 0 -1.85085e-005 0 0.000287155 -2.39371e-005 -3.0434e-005 0.000219878 0.000103813 -1.85085e-005 -2.84e-005 0.000287155 0.000137025 0 0 0 0 0 0 -3.0434e-005 -3.05125e-005 0 0 0 0 0 0 -3.05125e-005 0 0 0 0 0 -3.0434e-005 -3.05125e-005 0.000103813 3.89233e-005 0 0 0 0 -3.05125e-005 0 3.89233e-005 0 0 0 -3.0434e-005 -3.05125e-005 0 0 -2.84e-005 -3.36631e-005 0 0 -3.05125e-005 0 0 0 -3.36631e-005 0 -3.0434e-005 -3.05125e-005 0.000103813 3.89233e-005 -2.84e-005 -3.36631e-005 0.000137025 5.19278e-005 -3.05125e-005 0 3.89233e-005 0 -3.36631e-005 0 5.19278e-005 0 0 0 0 0 0 0.000219878 0 0.000116111 0 0 0 0 0.000219878 0.000103813 0.000116111 0.000107001 0 0 0 0 0 0.000116111 0 0 0 0 0 0 0.000116111 0.000107001 0 0 0 0.000219878 0 0.000116111 0 0.000287155 0 0.000145581 0.000219878 0.000103813 0.000116111 0.000107001 0.000287155 0.000137025 0.000145581 0.00013486 0 0.000116111 0 0 0 0.000145581 0 0 0.000116111 0.000107001 0 0 0.000145581 0.00013486 0 0 0 0 0 0 0.000103813 3.89233e-005 0.000107001 6.42169e-005 0 0 0 0 3.89233e-005 0 6.42169e-005 0 0 0 0 0 0.000107001 6.42169e-005 0 0 0 0 0 0 6.42169e-005 0 0 0 0.000103813 3.89233e-005 0.000107001 6.42169e-005 0.000137025 5.19278e-005 0.00013486 8.06834e-005 3.89233e-005 0 6.42169e-005 0 5.19278e-005 0 8.06834e-005 0 0.000107001 6.42169e-005 0 0 0.00013486 8.06834e-005 0 0 6.42169e-005 0 0 0 8.06834e-005 0 0 0 0 0 0 -1.85085e-005 0 0 0 -2.39371e-005 0 0 -1.85085e-005 -2.84e-005 0 0 -2.39371e-005 -3.0434e-005 0 -1.85085e-005 0 0.000287155 0 -2.39371e-005 0 0.000219878 -1.85085e-005 -2.84e-005 0.000287155 0.000137025 -2.39371e-005 -3.0434e-005 0.000219878 0.000103813 0 0 0 -2.39371e-005 0 0 0 0 0 0 -2.39371e-005 -3.0434e-005 0 0 0 0 0 -2.39371e-005 0 0.000219878 0 0 0 0 -2.39371e-005 -3.0434e-005 0.000219878 0.000103813 0 0 0 0 0 0 -2.84e-005 -3.36631e-005 0 0 -3.0434e-005 -3.05125e-005 0 0 -3.36631e-005 0 0 0 -3.05125e-005 0 -2.84e-005 -3.36631e-005 0.000137025 5.19278e-005 -3.0434e-005 -3.05125e-005 0.000103813 3.89233e-005 -3.36631e-005 0 5.19278e-005 0 -3.05125e-005 0 3.89233e-005 0 0 0 -3.0434e-005 -3.05125e-005 0 0 0 0 0 0 -3.05125e-005 0 0 0 0 0 -3.0434e-005 -3.05125e-005 0.000103813 3.89233e-005 0 0 0 0 -3.05125e-005 0 3.89233e-005 0 0 0 0 0 0 0.000287155 0 0.000145581 0 0.000219878 0 0.000116111 0.000287155 0.000137025 0.000145581 0.00013486 0.000219878 0.000103813 0.000116111 0.000107001 0 0.000145581 0 0 0 0.000116111 0 0 0.000145581 0.00013486 0 0 0.000116111 0.000107001 0 0 0 0.000219878 0 0.000116111 0 0 0 0 0.000219878 0.000103813 0.000116111 0.000107001 0 0 0 0 0 0.000116111 0 0 0 0 0 0 0.000116111 0.000107001 0 0 0 0 0 0 0.000137025 5.19278e-005 0.00013486 8.06834e-005 0.000103813 3.89233e-005 0.000107001 6.42169e-005 5.19278e-005 0 8.06834e-005 0 3.89233e-005 0 6.42169e-005 0 0.00013486 8.06834e-005 0 0 0.000107001 6.42169e-005 0 0 8.06834e-005 0 0 0 6.42169e-005 0 0 0 0.000103813 3.89233e-005 0.000107001 6.42169e-005 0 0 0 0 3.89233e-005 0 6.42169e-005 0 0 0 0 0 0.000107001 6.42169e-005 0 0 0 0 0 0 6.42169e-005 0 0 0 0 0 0 0 
SCALARS solution_2 double 1
LOOKUP_TABLE default
0 0 0 0 0 0 0 -0.000196223 0 0 0 0 0 0 -0.000196223 -9.99534e-005 0 0 0 0 0 -0.000196223 0 -0.000113651 0 0 0 0 -0.000196223 -9.99534e-005 -0.000113651 -9.33837e-005 0 0 0 -0.000196223 0 0 0 -8.7995e-020 0 0 -0.000196223 -9.99534e-005 0 0 -8.7995e-020 4.4645e-021 0 -0.000196223 0 -0.000113651 0 -8.7995e-020 0 1.47009e-020 -0.000196223 -9.99534e-005 -0.000113651 -9.33837e-005 -8.7995e-020 4.4645e-021 1.47009e-020 1.06367e-020 0 0 0 0 0 0 -9.99534e-005 -5.67859e-005 0 0 0 0 0 0 -5.67859e-005 0 0 0 0 0 -9.99534e-005 -5.67859e-005 -9.33837e-005 -5.94061e-005 0 0 0 0 -5.67859e-005 0 -5.94061e-005 0 0 0 -9.99534e-005 -5.67859e-005 0 0 4.4645e-021 5.9602e-020 0 0 -5.67859e-005 0 0 0 5.9602e-020 0 -9.99534e-005 -5.67859e-005 -9.33837e-005 -5.94061e-005 4.4645e-021 5.9602e-020 1.06367e-020 2.53777e-020 -5.67859e-005 0 -5.94061e-005 0 5.9602e-020 0 2.53777e-020 0 0 0 0 0 0 -0.000113651 0 -4.68951e-005 0 0 0 0 -0.000113651 -9.33837e-005 -4.68951e-005 -5.71154e-005 0 0 0 0 0 -4.68951e-005 0 0 0 0 0 0 -4.68951e-005 -5.71154e-005 0 0 0 -0.000113651 0 -4.68951e-005 0 1.47009e-020 0 1.46208e-020 -0.000113651 -9.33837e-005 -4.68951e-005 -5.71154e-005 1.47009e-020 1.06367e-020 1.46208e-020 2.68865e-020 0 -4.68951e-005 0 0 0 1.46208e-020 0 0 -4.68951e-005 -5.71154e-005 0 0 1.46208e-020 2.68865e-020 0 0 0 0 0 0 -9.33837e-005 -5.94061e-005 -5.71154e-005 -4.28716e-005 0 0 0 0 -5.94061e-005 0 -4.28716e-005 0 0 0 0 0 -5.71154e-005 -4.28716e-005 0 0 0 0 0 0 -4.28716e-005 0 0 0 -9.33837e-005 -5.94061e-005 -5.71154e-005 -4.28716e-005 1.06367e-020 2.53777e-020 2.68865e-020 4.12694e-021 -5.94061e-005 0 -4.28716e-005 0 2.53777e-020 0 4.12694e-021 0 -5.71154e-005 -4.28716e-005 0 0 2.68865e-020 4.12694e-021 0 0 -4.28716e-005 0 0 0 4.12694e-021 0 0 0 0 0 0 -8.7995e-020 0 0 0 0.000196223 0 0 -8.7995e-020 4.4645e-021 0 0 0.000196223 9.99534e-005 0 -8.7995e-020 0 1.47009e-020 0 0.000196223 0 0.000113651 -8.7995e-020 4.4645e-021 1.47009e-020 1.06367e-020 0.000196223 9.99534e-005 0.000113651 9.33837e-005 0 0 0 0.000196223 0 0 0 0 0 0 0.000196223 9.99534e-005 0 0 0 0 0 0.000196223 0 0.000113651 0 0 0 0 0.000196223 9.99534e-005 0.000113651 9.33837e-005 0 0 0 0 0 0 4.4645e-021 5.9602e-020 0 0 9.99534e-005 5.67859e-005 0 0 5.9602e-020 0 0 0 5.67859e-005 0 4.4645e-021 5.9602e-020 1.06367e-020 2.53777e-020 9.99534e-005 5.67859e-005 9.33837e-005 5.94061e-005 5.9602e-020 0 2.53777e-020 0 5.67859e-005 0 5.94061e-005 0 0 0 9.99534e-005 5.67859e-005 0 0 0 0 0 0 5.67859e-005 0 0 0 0 0 9.99534e-005 5.67859e-005 9.33837e-005 5.94061e-005 0 0 0 0 5.67859e-005 0 5.94061e-005 0 0 0 0 0 0 1.47009e-020 0 1.46208e-020 0 0.000113651 0 4.68951e-005 1.47009e-020 1.06367e-020 1.46208e-020 2.68865e-020 0.000113651 9.33837e-005 4.68951e-005 5.71154e-005 0 1.46208e-020 0 0 0 4.68951e-005 0 0 1.46208e-020 2.68865e-020 0 0 4.68951e-005 5.71154e-005 0 0 0 0.000113651 0 4.68951e-005 0 0 0 0 0.000113651 9.33837e-005 4.68951e-005 5.71154e-005 0 0 0 0 0 4.68951e-005 0 0 0 0 0 0 4.68951e-005 5.71154e-005 0 0 0 0 0 0 1.06367e-020 2.53777e-020 2.68865e-020 4.12694e-021 9.33837e-005 5.94061e-005 5.71154e-005 4.28716e-005 2.53777e-020 0 4.12694e-021 0 5.94061e-005 0 4.28716e-005 0 2.68865e-020 4.12694e-021 0 0 5.71154e-005 4.28716e-005 0 0 4.12694e-021 0 0 0 4.28716e-005 0 0 0 9.33837e-005 5.94061e-005 5.71154e-005 4.28716e-005 0 0 0 0 5.94061e-005 0 4.28716e-005 0 0 0 0 0 5.71154e-005 4.28716e-005 0 0 0 0 0 0 4.28716e-005 0 0 0 0 0 0 0 
SCALARS solution_3 double 1
LOOKUP_TABLE default
0 0 0 0 0 0 0 0.0020853 0 0 0 0 0 0 0.0020853 0.000307191 0 0 0 0 0 0.0020853 0 0.000556627 0 0 0 0 0.0020853 0.000307191 0.000556627 0.000347411 0 0 0 0.0020853 0 0 0 0.00229315 0 0 0.0020853 0.000307191 0 0 0.00229315 0.000175717 0 0.0020853 0 0.000556627 0 0.00229315 0 0.00045476 0.0020853 0.000307191 0.000556627 0.000347411 0.00229315 0.000175717 0.00045476 0.000248374 0 0 0 0 0 0 0.000307191 0.000417724 0 0 0 0 0 0 0.000417724 0 0 0 0 0 0.000307191 0.000417724 0.000347411 0.000309129 0 0 0 0 0.000417724 0 0.000309129 0 0 0 0.000307191 0.000417724 0 0 0.000175717 0.000421267 0 0 0.000417724 0 0 0 0.000421267 0 0.000307191 0.000417724 0.000347411 0.000309129 0.000175717 0.000421267 0.000248374 0.000270842 0.000417724 0 0.000309129 0 0.000421267 0 0.000270842 0 0 0 0 0 0 0.000556627 0 0.00024378 0 0 0 0 0.000556627 0.000347411 0.00024378 0.000307943 0 0 0 0 0 0.00024378 0 0 0 0 0 0 0.00024378 0.000307943 0 0 0 0.000556627 0 0.00024378 0 0.00045476 0 0.000204829 0.000556627 0.000347411 0.00024378 0.000307943 0.00045476 0.000248374 0.000204829 0.000273743 0 0.00024378 0 0 0 0.000204829 0 0 0.00024378 0.000307943 0 0 0.000204829 0.000273743 0 0 0 0 0 0 0.000347411 0.000309129 0.000307943 0.000282465 0 0 0 0 0.000309129 0 0.000282465 0 0 0 0 0 0.000307943 0.000282465 0 0 0 0 0 0 0.000282465 0 0 0 0.000347411 0.000309129 0.000307943 0.000282465 0.000248374 0.000270842 0.000273743 0.000271209 0.000309129 0 0.000282465 0 0.000270842 0 0.000271209 0 0.000307943 0.000282465 0 0 0.000273743 0.000271209 0 0 0.000282465 0 0 0 0.000271209 0 0 0 0 0 0 0.00229315 0 0 0 0.0020853 0 0 0.00229315 0.000175717 0 0 0.0020853 0.000307191 0 0.00229315 0 0.00045476 0 0.0020853 0 0.000556627 0.00229315 0.000175717 0.00045476 0.000248374 0.0020853 0.000307191 0.000556627 0.000347411 0 0 0 0.0020853 0 0 0 0 0 0 0.0020853 0.000307191 0 0 0 0 0 0.0020853 0 0.000556627 0 0 0 0 0.0020853 0.000307191 0.000556627 0.000347411 0 0 0 0 0 0 0.000175717 0.000421267 0 0 0.000307191 0.000417724 0 0 0.000421267 0 0 0 0.000417724 0 0.000175717 0.000421267 0.000248374 0.000270842 0.000307191 0.000417724 0.000347411 0.000309129 0.000421267 0 0.000270842 0 0.000417724 0 0.000309129 0 0 0 0.000307191 0.000417724 0 0 0 0 0 0 0.000417724 0 0 0 0 0 0.000307191 0.000417724 0.000347411 0.000309129 0 0 0 0 0.000417724 0 0.000309129 0 0 0 0 0 0 0.00045476 0 0.000204829 0 0.000556627 0 0.00024378 0.00045476 0.000248374 0.000204829 0.000273743 0.000556627 0.000347411 0.00024378 0.000307943 0 0.000204829 0 0 0 0.00024378 0 0 0.000204829 0.000273743 0 0 0.00024378 0.000307943 0 0 0 0.000556627 0 0.00024378 0 0 0 0 0.000556627 0.000347411 0.00024378 0.000307943 0 0 0 0 0 0.00024378 0 0 0 0 0 0 0.00024378 0.000307943 0 0 0 0 0 0 0.000248374 0.000270842 0.000273743 0.000271209 0.000347411 0.000309129 0.000307943 0.000282465 0.000270842 0 0.000271209 0 0.000309129 0 0.000282465 0 0.000273743 0.000271209 0 0 0.000307943 0.000282465 0 0 0.000271209 0 0 0 0.000282465 0 0 0 0.000347411 0.000309129 0.000307943 0.000282465 0 0 0 0 0.000309129 0 0.000282465 0 0 0 0 0 0.000307943 0.000282465 0 0 0 0 0 0 0.000282465 0 0 0 0 0 0 0 
SCALARS update_0 double 1
LOOKUP_TABLE default
0 0 0 0 0 0 0 1.96345e-010 0 0 0 0 0 0 1.96345e-010 1.54792e-010 0 0 0 0 0 1.96345e-010 0 9.56832e-011 0 0 0 0 1.96345e-010 1.54792e-010 9.56832e-011 1.02132e-010 0 0 0 1.96345e-010 0 0 0 2.77937e-010 0 0 1.96345e-010 1.54792e-010 0 0 2.77937e-010 2.06609e-010 0 1.96345e-010 0 9.56832e-011 0 2.77937e-010 0 1.40815e-010 1.96345e-010 1.54792e-010 9.56832e-011 1.02132e-010 2.77937e-010 2.06609e-010 1.40815e-010 1.3792e-010 0 0 0 0 0 0 1.54792e-010 5.73064e-011 0 0 0 0 0 0 5.73064e-011 0 0 0 0 0 1.54792e-010 5.73064e-011 1.02132e-010 6.29993e-011 0 0 0 0 5.73064e-011 0 6.29993e-011 0 0 0 1.54792e-010 5.73064e-011 0 0 2.06609e-010 7.3132e-011 0 0 5.73064e-011 0 0 0 7.3132e-011 0 1.54792e-010 5.73064e-011 1.02132e-010 6.29993e-011 2.06609e-010 7.3132e-011 1.3792e-010 8.09438e-011 5.73064e-011 0 6.29993e-011 0 7.3132e-011 0 8.09438e-011 0 0 0 0 0 0 9.56832e-011 0 1.12e-011 0 0 0 0 9.56832e-011 1.02132e-010 1.12e-011 3.26281e-011 0 0 0 0 0 1.12e-011 0 0 0 0 0 0 1.12e-011 3.26281e-011 0 0 0 9.56832e-011 0 1.12e-011 0 1.40815e-010 0 2.04501e-011 9.56832e-011 1.02132e-010 1.12e-011 3.26281e-011 1.40815e-010 1.3792e-010 2.04501e-011 4.48451e-011 0 1.12e-011 0 0 0 2.04501e-011 0 0 1.12e-011 3.26281e-011 0 0 2.04501e-011 4.48451e-011 0 0 0 0 0 0 1.02132e-010 6.29993e-011 3.26281e-011 3.84927e-011 0 0 0 0 6.29993e-011 0 3.84927e-011 0 0 0 0 0 3.26281e-011 3.84927e-011 0 0 0 0 0 0 3.84927e-011 0 0 0 1.02132e-010 6.29993e-011 3.26281e-011 3.84927e-011 1.3792e-010 8.09438e-011 4.48451e-011 4.93761e-011 6.29993e-011 0 3.84927e-011 0 8.09438e-011 0 4.93761e-011 0 3.26281e-011 3.84927e-011 0 0 4.48451e-011 4.93761e-011 0 0 3.84927e-011 0 0 0 4.93761e-011 0 0 0 0 0 0 2.77937e-010 0 0 0 1.96345e-010 0 0 2.77937e-010 2.06609e-010 0 0 1.96345e-010 1.54792e-010 0 2.77937e-010 0 1.40815e-010 0 1.96345e-010 0 9.56832e-011 2.77937e-010 2.06609e-010 1.40815e-010 1.3792e-010 1.96345e-010 1.54792e-010 9.56832e-011 1.02132e-010 0 0 0 1.96345e-010 0 0 0 0 0 0 1.96345e-010 1.54792e-010 0 0 0 0 0 1.96345e-010 0 9.56832e-011 0 0 0 0 1.96345e-010 1.54792e-010 9.56832e-011 1.02132e-010 0 0 0 0 0 0 2.06609e-010 7.3132e-011 0 0 1.54792e-010 5.73064e-011 0 0 7.3132e-011 0 0 0 5.73064e-011 0 2.06609e-010 7.3132e-011 1.3792e-010 8.09438e-011 1.54792e-010 5.73064e-011 1.02132e-010 6.29993e-011 7.3132e-011 0 8.09438e-011 0 5.73064e-011 0 6.29993e-011 0 0 0 1.54792e-010 5.73064e-011 0 0 0 0 0 0 5.73064e-011 0 0 0 0 0 1.54792e-010 5.73064e-011 1.02132e-010 6.29993e-011 0 0 0 0 5.73064e-011 0 6.29993e-011 0 0 0 0 0 0 1.40815e-010 0 2.04501e-011 0 9.56832e-011 0 1.12e-011 1.40815e-010 1.3792e-010 2.04501e-011 4.48451e-011 9.56832e-011 1.02132e-010 1.12e-011 3.26281e-011 0 2.04501e-011 0 0 0 1.12e-011 0 0 2.04501e-011 4.48451e-011 0 0 1.12e-011 3.26281e-011 0 0 0 9.56832e-011 0 1.12e-011 0 0 0 0 9.56832e-011 1.02132e-010 1.12e-011 3.26281e-011 0 0 0 0 0 1.12e-011 0 0 0 0 0 0 1.12e-011 3.26281e-011 0 0 0 0 0 0 1.3792e-010 8.09438e-011 4.48451e-011 4.93761e-011 1.02132e-010 6.29993e-011 3.26281e-011 3.84927e-011 8.09438e-011 0 4.93761e-011 0 6.29993e-011 0 3.84927e-011 0 4.48451e-011 4.93761e-011 0 0 3.26281e-011 3.84927e-011 0 0 4.93761e-011 0 0 0 3.84927e-011 0 0 0 1.02132e-010 6.29993e-011 3.26281e-011 3.84927e-011 0 0 0 0 6.29993e-011 0 3.84927e-011 0 0 0 0 0 3.26281e-011 3.84927e-011 0 0 0 0 0 0 3.84927e-011 0 0 0 0 0 0 0 
SCALARS update_1 double 1
LOOKUP_TABLE default
0 0 0 0 0 0 0 -1.22362e-011 0 0 0 0 0 0 -1.22362e-011 -1.55774e-011 0 0 0 0 0 -1.22362e-011 0 1.12573e-010 0 0 0 0 -1.22362e-011 -1.55774e-011 1.12573e-010 5.3182e-011 0 0 0 -1.22362e-011 0 0 0 -9.4535e-012 0 0 -1.22362e-011 -1.55774e-011 0 0 -9.4535e-012 -1.4533e-011 0 -1.22362e-011 0 1.12573e-010 0 -9.4535e-012 0 1.47012e-010 -1.22362e-011 -1.55774e-011 1.12573e-010 5.3182e-011 -9.4535e-012 -1.4533e-011 1.47012e-010 7.01961e-011 0 0 0 0 0 0 -1.55774e-011 -1.56285e-011 0 0 0 0 0 0 -1.56285e-011 0 0 0 0 0 -1.55774e-011 -1.56285e-011 5.3182e-011 1.99463e-011 0 0 0 0 -1.56285e-011 0 1.99463e-011 0 0 0 -1.55774e-011 -1.56285e-011 0 0 -1.4533e-011 -1.72413e-011 0 0 -1.56285e-011 0 0 0 -1.72413e-011 0 -1.55774e-011 -1.56285e-011 5.3182e-011 1.99463e-011 -1.4533e-011 -1.72413e-011 7.01961e-011 2.66107e-011 -1.56285e-011 0 1.99463e-011 0 -1.72413e-011 0 2.66107e-011 0 0 0 0 0 0 1.12573e-010 0 5.94442e-011 0 0 0 0 1.12573e-010 5.3182e-011 5.94442e-011 5.48074e-011 0 0 0 0 0 5.94442e-011 0 0 0 0 0 0 5.94442e-011 5.48074e-011 0 0 0 1.12573e-010 0 5.94442e-011 0 1.47012e-010 0 7.453e-011 1.12573e-010 5.3182e-011 5.94442e-011 5.48074e-011 1.47012e-010 7.01961e-011 7.453e-011 6.90775e-011 0 5.94442e-011 0 0 0 7.453e-011 0 0 5.94442e-011 5.48074e-011 0 0 7.453e-011 6.90775e-011 0 0 0 0 0 0 5.3182e-011 1.99463e-011 5.48074e-011 3.29022e-011 0 0 0 0 1.99463e-011 0 3.29022e-011 0 0 0 0 0 5.48074e-011 3.29022e-011 0 0 0 0 0 0 3.29022e-011 0 0 0 5.3182e-011 1.99463e-011 5.48074e-011 3.29022e-011 7.01961e-011 2.66107e-011 6.90775e-011 4.13394e-011 1.99463e-011 0 3.29022e-011 0 2.66107e-011 0 4.13394e-011 0 5.48074e-011 3.29022e-011 0 0 6.90775e-011 4.13394e-011 0 0 3.29022e-011 0 0 0 4.13394e-011 0 0 0 0 0 0 -9.4535e-012 0 0 0 -1.22362e-011 0 0 -9.4535e-012 -1.4533e-011 0 0 -1.22362e-011 -1.55774e-011 0 -9.4535e-012 0 1.47012e-010 0 -1.22362e-011 0 1.12573e-010 -9.4535e-012 -1.4533e-011 1.47012e-010 7.01961e-011 -1.22362e-011 -1.55774e-011 1.12573e-010 5.3182e-011 0 0 0 -1.22362e-011 0 0 0 0 0 0 -1.22362e-011 -1.55774e-011 0 0 0 0 0 -1.22362e-011 0 1.12573e-010 0 0 0 0 -1.22362e-011 -1.55774e-011 1.12573e-010 5.3182e-011 0 0 0 0 0 0 -1.4533e-011 -1.72413e-011 0 0 -1.55774e-011 -1.56285e-011 0 0 -1.72413e-011 0 0 0 -1.56285e-011 0 -1.4533e-011 -1.72413e-011 7.01961e-011 2.66107e-011 -1.55774e-011 -1.56285e-011 5.3182e-011 1.99463e-011 -1.72413e-011 0 2.66107e-011 0 -1.56285e-011 0 1.99463e-011 0 0 0 -1.55774e-011 -1.56285e-011 0 0 0 0 0 0 -1.56285e-011 0 0 0 0 0 -1.55774e-011 -1.56285e-011 5.3182e-011 1.99463e-011 0 0 0 0 -1.56285e-011 0 1.99463e-011 0 0 0 0 0 0 1.47012e-010 0 7.453e-011 0 1.12573e-010 0 5.94442e-011 1.47012e-010 7.01961e-011 7.453e-011 6.90775e-011 1.12573e-010 5.3182e-011 5.94442e-011 5.48074e-011 0 7.453e-011 0 0 0 5.94442e-011 0 0 7.453e-011 6.90775e-011 0 0 5.94442e-011 5.48074e-011 0 0 0 1.12573e-010 0 5.94442e-011 0 0 0 0 1.12573e-010 5.3182e-011 5.94442e-011 5.48074e-011 0 0 0 0 0 5.94442e-011 0 0 0 0 0 0 5.94442e-011 5.48074e-011 0 0 0 0 0 0 7.01961e-011 2.66107e-011 6.90775e-011 4.13394e-011 5.3182e-011 1.99463e-011 5.48074e-011 3.29022e-011 2.66107e-011 0 4.13394e-011 0 1.99463e-011 0 3.29022e-011 0 6.90775e-011 4.13394e-011 0 0 5.48074e-011 3.29022e-011 0 0 4.13394e-011 0 0 0 3.29022e-011 0 0 0 5.3182e-011 1.99463e-011 5.48074e-011 3.29022e-011 0 0 0 0 1.99463e-011 0 3.29022e-011 0 0 0 0 0 5.48074e-011 3.29022e-011 0 0 0 0 0 0 3.29022e-011 0 0 0 0 0 0 0 
SCALARS update_2 double 1
LOOKUP_TABLE default