# vtk DataFile Version 3.0
#This file was generated by the deal.II library on 2015/5/9 at 7:59:36
ASCII
DATASET UNSTRUCTURED_GRID

POINTS 4096 double
0 0 0
0.03125 0 0
0 0.03125 0
0.03125 0.03125 0
0.03125 0 0
0.0625 0 0
0.03125 0.03125 0
0.0625 0.03125 0
0 0.03125 0
0.03125 0.03125 0
0 0.0625 0
0.03125 0.0625 0
0.03125 0.03125 0
0.0625 0.03125 0
0.03125 0.0625 0
0.0625 0.0625 0
0.0625 0 0
0.09375 0 0
0.0625 0.03125 0
0.09375 0.03125 0
0.09375 0 0
0.125 0 0
0.09375 0.03125 0
0.125 0.03125 0
0.0625 0.03125 0
0.09375 0.03125 0
0.0625 0.0625 0
0.09375 0.0625 0
0.09375 0.03125 0
0.125 0.03125 0
0.09375 0.0625 0
0.125 0.0625 0
0 0.0625 0
0.03125 0.0625 0
0 0.09375 0
0.03125 0.09375 0
0.03125 0.0625 0
0.0625 0.0625 0
0.03125 0.09375 0
0.0625 0.09375 0
0 0.09375 0
0.03125 0.09375 0
0 0.125 0
0.03125 0.125 0
0.03125 0.09375 0
0.0625 0.09375 0
0.03125 0.125 0
0.0625 0.125 0
0.0625 0.0625 0
0.09375 0.0625 0
0.0625 0.09375 0
0.09375 0.09375 0
0.09375 0.0625 0
0.125 0.0625 0
0.09375 0.09375 0
0.125 0.09375 0
0.0625 0.09375 0
0.09375 0.09375 0
0.0625 0.125 0
0.09375 0.125 0
0.09375 0.09375 0
0.125 0.09375 0
0.09375 0.125 0
0.125 0.125 0
0.125 0 0
0.15625 0 0
0.125 0.03125 0
0.15625 0.03125 0
0.15625 0 0
0.1875 0 0
0.15625 0.03125 0
0.1875 0.03125 0
0.125 0.03125 0
0.15625 0.03125 0
0.125 0.0625 0
0.15625 0.0625 0
0.15625 0.03125 0
0.1875 0.03125 0
0.15625 0.0625 0
0.1875 0.0625 0
0.1875 0 0
0.21875 0 0
0.1875 0.03125 0
0.21875 0.03125 0
0.21875 0 0
0.25 0 0
0.21875 0.03125 0
0.25 0.03125 0
0.1875 0.03125 0
0.21875 0.03125 0
0.1875 0.0625 0
0.21875 0.0625 0
0.21875 0.03125 0
0.25 0.03125 0
0.21875 0.0625 0
0.25 0.0625 0
0.125 0.0625 0
0.15625 0.0625 0
0.125 0.09375 0
0.15625 0.09375 0
0.15625 0.0625 0
0.1875 0.0625 0
0.15625 0.09375 0
0.1875 0.09375 0
0.125 0.09375 0
0.15625 0.09375 0
0.125 0.125 0
0.15625 0.125 0
0.15625 0.09375 0
0.1875 0.09375 0
0.15625 0.125 0
0.1875 0.125 0
0.1875 0.0625 0
0.21875 0.0625 0
0.1875 0.09375 0
0.21875 0.09375 0
0.21875 0.0625 0
0.25 0.0625 0
0.21875 0.09375 0
0.25 0.09375 0
0.1875 0.09375 0
0.21875 0.09375 0
0.1875 0.125 0
0.21875 0.125 0
0.21875 0.09375 0
0.25 0.09375 0
0.21875 0.125 0
0.25 0.125 0
0 0.125 0
0.03125 0.125 0
0 0.15625 0
0.03125 0.15625 0
0.03125 0.125 0
0.0625 0.125 0
0.03125 0.15625 0
0.0625 0.15625 0
0 0.15625 0
0.03125 0.15625 0
0 0.1875 0
0.03125 0.1875 0
0.03125 0.15625 0
0.0625 0.15625 0
0.03125 0.1875 0
0.0625 0.1875 0
0.0625 0.125 0
0.09375 0.125 0
0.0625 0.15625 0
0.09375 0.15625 0
0.09375 0.125 0
0.125 0.125 0
0.09375 0.15625 0
0.125 0.15625 0
0.0625 0.15625 0
0.09375 0.15625 0
0.0625 0.1875 0
0.09375 0.1875 0
0.09375 0.15625 0
0.125 0.15625 0
0.09375 0.1875 0
0.125 0.1875 0
0 0.1875 0
0.03125 0.1875 0
0 0.21875 0
0.03125 0.21875 0
0.03125 0.1875 0
0.0625 0.1875 0
0.03125 0.21875 0
0.0625 0.21875 0
0 0.21875 0
0.03125 0.21875 0
0 0.25 0
0.03125 0.25 0
0.03125 0.21875 0
0.0625 0.21875 0
0.03125 0.25 0
0.0625 0.25 0
0.0625 0.1875 0
0.09375 0.1875 0
0.0625 0.21875 0
0.09375 0.21875 0
0.09375 0.1875 0
0.125 0.1875 0
0.09375 0.21875 0
0.125 0.21875 0
0.0625 0.21875 0
0.09375 0.21875 0
0.0625 0.25 0
0.09375 0.25 0
0.09375 0.21875 0
0.125 0.21875 0
0.09375 0.25 0
0.125 0.25 0
0.125 0.125 0
0.15625 0.125 0
0.125 0.15625 0
0.15625 0.15625 0
0.15625 0.125 0
0.1875 0.125 0
0.15625 0.15625 0
0.1875 0.15625 0
0.125 0.15625 0
0.15625 0.15625 0
0.125 0.1875 0
0.15625 0.1875 0
0.15625 0.15625 0
0.1875 0.15625 0
0.15625 0.1875 0
0.1875 0.1875 0
0.1875 0.125 0
0.21875 0.125 0
0.1875 0.15625 0
0.21875 0.15625 0
0.21875 0.125 0
0.25 0.125 0
0.21875 0.15625 0
0.25 0.15625 0
0.1875 0.15625 0
0.21875 0.15625 0
0.1875 0.1875 0
0.21875 0.1875 0
0.21875 0.15625 0
0.25 0.15625 0
0.21875 0.1875 0
0.25 0.1875 0
0.125 0.1875 0
0.15625 0.1875 0
0.125 0.21875 0
0.15625 0.21875 0
0.15625 0.1875 0
0.1875 0.1875 0
0.15625 0.21875 0
0.1875 0.21875 0
0.125 0.21875 0
0.15625 0.21875 0
0.125 0.25 0
0.15625 0.25 0
0.15625 0.21875 0
0.1875 0.21875 0
0.15625 0.25 0
0.1875 0.25 0
0.1875 0.1875 0
0.21875 0.1875 0
0.1875 0.21875 0
0.21875 0.21875 0
0.21875 0.1875 0
0.25 0.1875 0
0.21875 0.21875 0
0.25 0.21875 0
0.1875 0.21875 0
0.21875 0.21875 0
0.1875 0.25 0
0.21875 0.25 0
0.21875 0.21875 0
0.25 0.21875 0
0.21875 0.25 0
0.25 0.25 0
0.25 0 0
0.28125 0 0
0.25 0.03125 0
0.28125 0.03125 0
0.28125 0 0
0.3125 0 0
0.28125 0.03125 0
0.3125 0.03125 0
0.25 0.03125 0
0.28125 0.03125 0
0.25 0.0625 0
0.28125 0.0625 0
0.28125 0.03125 0
0.3125 0.03125 0
0.28125 0.0625 0
0.3125 0.0625 0
0.3125 0 0
0.34375 0 0
0.3125 0.03125 0
0.34375 0.03125 0
0.34375 0 0
0.375 0 0
0.34375 0.03125 0
0.375 0.03125 0
0.3125 0.03125 0
0.34375 0.03125 0
0.3125 0.0625 0
0.34375 0.0625 0
0.34375 0.03125 0
0.375 0.03125 0
0.34375 0.0625 0
0.375 0.0625 0
0.25 0.0625 0
0.28125 0.0625 0
0.25 0.09375 0
0.28125 0.09375 0
0.28125 0.0625 0
0.3125 0.0625 0
0.28125 0.09375 0
0.3125 0.09375 0
0.25 0.09375 0
0.28125 0.09375 0
0.25 0.125 0
0.28125 0.125 0
0.28125 0.09375 0
0.3125 0.09375 0
0.28125 0.125 0
0.3125 0.125 0
0.3125 0.0625 0
0.34375 0.0625 0
0.3125 0.09375 0
0.34375 0.09375 0
0.34375 0.0625 0
0.375 0.0625 0
0.34375 0.09375 0
0.375 0.09375 0
0.3125 0.09375 0
0.34375 0.09375 0
0.3125 0.125 0
0.34375 0.125 0
0.34375 0.09375 0
0.375 0.09375 0
0.34375 0.125 0
0.375 0.125 0
0.375 0 0
0.40625 0 0
0.375 0.03125 0
0.40625 0.03125 0
0.40625 0 0
0.4375 0 0
0.40625 0.03125 0
0.4375 0.03125 0
0.375 0.03125 0
0.40625 0.03125 0
0.375 0.0625 0
0.40625 0.0625 0
0.40625 0.03125 0
0.4375 0.03125 0
0.40625 0.0625 0
0.4375 0.0625 0
0.4375 0 0
0.46875 0 0
0.4375 0.03125 0
0.46875 0.03125 0
0.46875 0 0
0.5 0 0
0.46875 0.03125 0
0.5 0.03125 0
0.4375 0.03125 0
0.46875 0.03125 0
0.4375 0.0625 0
0.46875 0.0625 0
0.46875 0.03125 0
0.5 0.03125 0
0.46875 0.0625 0
0.5 0.0625 0
0.375 0.0625 0
0.40625 0.0625 0
0.375 0.09375 0
0.40625 0.09375 0
0.40625 0.0625 0
0.4375 0.0625 0
0.40625 0.09375 0
0.4375 0.09375 0
0.375 0.09375 0
0.40625 0.09375 0
0.375 0.125 0
0.40625 0.125 0
0.40625 0.09375 0
0.4375 0.09375 0
0.40625 0.125 0
0.4375 0.125 0
0.4375 0.0625 0
0.46875 0.0625 0
0.4375 0.09375 0
0.46875 0.09375 0
0.46875 0.0625 0
0.5 0.0625 0
0.46875 0.09375 0
0.5 0.09375 0
0.4375 0.09375 0
0.46875 0.09375 0
0.4375 0.125 0
0.46875 0.125 0
0.46875 0.09375 0
0.5 0.09375 0
0.46875 0.125 0
0.5 0.125 0
0.25 0.125 0
0.28125 0.125 0
0.25 0.15625 0
0.28125 0.15625 0
0.28125 0.125 0
0.3125 0.125 0
0.28125 0.15625 0
0.3125 0.15625 0
0.25 0.15625 0
0.28125 0.15625 0
0.25 0.1875 0
0.28125 0.1875 0
0.28125 0.15625 0
0.3125 0.15625 0
0.28125 0.1875 0
0.3125 0.1875 0
0.3125 0.125 0
0.34375 0.125 0
0.3125 0.15625 0
0.34375 0.15625 0
0.34375 0.125 0
0.375 0.125 0
0.34375 0.15625 0
0.375 0.15625 0
0.3125 0.15625 0
0.34375 0.15625 0
0.3125 0.1875 0
0.34375 0.1875 0
0.34375 0.15625 0
0.375 0.15625 0
0.34375 0.1875 0
0.375 0.1875 0
0.25 0.1875 0
0.28125 0.1875 0
0.25 0.21875 0
0.28125 0.21875 0
0.28125 0.1875 0
0.3125 0.1875 0
0.28125 0.21875 0
0.3125 0.21875 0
0.25 0.21875 0
0.28125 0.21875 0
0.25 0.25 0
0.28125 0.25 0
0.28125 0.21875 0
0.3125 0.21875 0
0.28125 0.25 0
0.3125 0.25 0
0.3125 0.1875 0
0.34375 0.1875 0
0.3125 0.21875 0
0.34375 0.21875 0
0.34375 0.1875 0
0.375 0.1875 0
0.34375 0.21875 0
0.375 0.21875 0
0.3125 0.21875 0
0.34375 0.21875 0
0.3125 0.25 0
0.34375 0.25 0
0.34375 0.21875 0
0.375 0.21875 0
0.34375 0.25 0
0.375 0.25 0
0.375 0.125 0
0.40625 0.125 0
0.375 0.15625 0
0.40625 0.15625 0
0.40625 0.125 0
0.4375 0.125 0
0.40625 0.15625 0
0.4375 0.15625 0
0.375 0.15625 0
0.40625 0.15625 0
0.375 0.1875 0
0.40625 0.1875 0
0.40625 0.15625 0
0.4375 0.15625 0
0.40625 0.1875 0
0.4375 0.1875 0
0.4375 0.125 0
0.46875 0.125 0
0.4375 0.15625 0
0.46875 0.15625 0
0.46875 0.125 0
0.5 0.125 0
0.46875 0.15625 0
0.5 0.15625 0
0.4375 0.15625 0
0.46875 0.15625 0
0.4375 0.1875 0
0.46875 0.1875 0
0.46875 0.15625 0
0.5 0.15625 0
0.46875 0.1875 0
0.5 0.1875 0
0.375 0.1875 0
0.40625 0.1875 0
0.375 0.21875 0
0.40625 0.21875 0
0.40625 0.1875 0
0.4375 0.1875 0
0.40625 0.21875 0
0.4375 0.21875 0
0.375 0.21875 0
0.40625 0.21875 0
0.375 0.25 0
0.40625 0.25 0
0.40625 0.21875 0
0.4375 0.21875 0
0.40625 0.25 0
0.4375 0.25 0
0.4375 0.1875 0
0.46875 0.1875 0
0.4375 0.21875 0
0.46875 0.21875 0
0.46875 0.1875 0
0.5 0.1875 0
0.46875 0.21875 0
0.5 0.21875 0
0.4375 0.21875 0
0.46875 0.21875 0
0.4375 0.25 0
0.46875 0.25 0
0.46875 0.21875 0
0.5 0.21875 0
0.46875 0.25 0
0.5 0.25 0
0 0.25 0
0.03125 0.25 0
0 0.28125 0
0.03125 0.28125 0
0.03125 0.25 0
0.0625 0.25 0
0.03125 0.28125 0
0.0625 0.28125 0
0 0.28125 0
0.03125 0.28125 0
0 0.3125 0
0.03125 0.3125 0
0.03125 0.28125 0
0.0625 0.28125 0
0.03125 0.3125 0
0.0625 0.3125 0
0.0625 0.25 0
0.09375 0.25 0
0.0625 0.28125 0
0.09375 0.28125 0
0.09375 0.25 0
0.125 0.25 0
0.09375 0.28125 0
0.125 0.28125 0
0.0625 0.28125 0
0.09375 0.28125 0
0.0625 0.3125 0
0.09375 0.3125 0
0.09375 0.28125 0
0.125 0.28125 0
0.09375 0.3125 0
0.125 0.3125 0
0 0.3125 0
0.03125 0.3125 0
0 0.34375 0
0.03125 0.34375 0
0.03125 0.3125 0
0.0625 0.3125 0
0.03125 0.34375 0
0.0625 0.34375 0
0 0.34375 0
0.03125 0.34375 0
0 0.375 0
0.03125 0.375 0
0.03125 0.34375 0
0.0625 0.34375 0
0.03125 0.375 0
0.0625 0.375 0
0.0625 0.3125 0
0.09375 0.3125 0
0.0625 0.34375 0
0.09375 0.34375 0
0.09375 0.3125 0
0.125 0.3125 0
0.09375 0.34375 0
0.125 0.34375 0
0.0625 0.34375 0
0.09375 0.34375 0
0.0625 0.375 0
0.09375 0.375 0
0.09375 0.34375 0
0.125 0.34375 0
0.09375 0.375 0
0.125 0.375 0
0.125 0.25 0
0.15625 0.25 0
0.125 0.28125 0
0.15625 0.28125 0
0.15625 0.25 0
0.1875 0.25 0
0.15625 0.28125 0
0.1875 0.28125 0
0.125 0.28125 0
0.15625 0.28125 0
0.125 0.3125 0
0.15625 0.3125 0
0.15625 0.28125 0
0.1875 0.28125 0
0.15625 0.3125 0
0.1875 0.3125 0
0.1875 0.25 0
0.21875 0.25 0
0.1875 0.28125 0
0.21875 0.28125 0
0.21875 0.25 0
0.25 0.25 0
0.21875 0.28125 0
0.25 0.28125 0
0.1875 0.28125 0
0.21875 0.28125 0
0.1875 0.3125 0
0.21875 0.3125 0
0.21875 0.28125 0
0.25 0.28125 0
0.21875 0.3125 0
0.25 0.3125 0
0.125 0.3125 0
0.15625 0.3125 0
0.125 0.34375 0
0.15625 0.34375 0
0.15625 0.3125 0
0.1875 0.3125 0
0.15625 0.34375 0
0.1875 0.34375 0
0.125 0.34375 0
[...]
POINT_DATA 4096
SCALARS solution_0 double 1
LOOKUP_TABLE default
0 0 -0.0146484 0.00986454 0 0 0.00986454 0.013489 -0.0146484 0.00986454 -0.0273438 0.0247516 0.00986454 0.013489 0.0247516 0.0283558 0 0 0.013489 0.0129326 0 0 0.0129326 0.0131098 0.013489 0.0129326 0.0283558 0.0262259 0.0129326 0.0131098 0.0262259 0.0255598 -0.0273438 0.0247516 -0.0380859 0.0389299 0.0247516 0.0283558 0.0389299 0.042446 -0.0380859 0.0389299 -0.046875 0.0510167 0.0389299 0.042446 0.0510167 0.0544998 0.0283558 0.0262259 0.042446 0.0389523 0.0262259 0.0255598 0.0389523 0.0371522 0.042446 0.0389523 0.0544998 0.0500242 0.0389523 0.0371522 0.0500242 0.0472422 0 0 0.0131098 0.0127106 0 0 0.0127106 0.0121548 0.0131098 0.0127106 0.0255598 0.0243241 0.0127106 0.0121548 0.0243241 0.0230089 0 0 0.0121548 0.0114406 0 0 0.0114406 0.0106568 0.0121548 0.0114406 0.0230089 0.0215448 0.0114406 0.0106568 0.0215448 0.0200274 0.0255598 0.0243241 0.0371522 0.0348984 0.0243241 0.0230089 0.0348984 0.0327031 0.0371522 0.0348984 0.0472422 0.0440425 0.0348984 0.0327031 0.0440425 0.0410083 0.0230089 0.0215448 0.0327031 0.0304568 0.0215448 0.0200274 0.0304568 0.0282311 0.0327031 0.0304568 0.0410083 0.0380296 0.0304568 0.0282311 0.0380296 0.0351627 -0.046875 0.0510167 -0.0537109 0.0605816 0.0510167 0.0544998 0.0605816 0.0640642 -0.0537109 0.0605816 -0.0585938 0.0674924 0.0605816 0.0640642 0.0674924 0.0709722 0.0544998 0.0500242 0.0640642 0.0589163 0.0500242 0.0472422 0.0589163 0.0554022 0.0640642 0.0589163 0.0709722 0.065387 0.0589163 0.0554022 0.065387 0.0613834 -0.0585938 0.0674924 -0.0615234 0.0717158 0.0674924 0.0709722 0.0717158 0.0751817 -0.0615234 0.0717158 -0.0625 0.0732567 0.0717158 0.0751817 0.0732567 0.0766955 0.0709722 0.065387 0.0751817 0.0693548 0.065387 0.0613834 0.0693548 0.065079 0.0751817 0.0693548 0.0766955 0.0708094 0.0693548 0.065079 0.0708094 0.0664641 0.0472422 0.0440425 0.0554022 0.0514529 0.0440425 0.0410083 0.0514529 0.0477269 0.0554022 0.0514529 0.0613834 0.0569153 0.0514529 0.0477269 0.0569153 0.0526964 0.0410083 0.0380296 0.0477269 0.044138 0.0380296 0.0351627 0.044138 0.0407417 0.0477269 0.044138 0.0526964 0.0486679 0.044138 0.0407417 0.0486679 0.0448915 0.0613834 0.0569153 0.065079 0.0603216 0.0569153 0.0526964 0.0603216 0.0558262 0.065079 0.0603216 0.0664641 0.0616415 0.0603216 0.0558262 0.0616415 0.0570913 0.0526964 0.0486679 0.0558262 0.0515532 0.0486679 0.0448915 0.0515532 0.0475697 0.0558262 0.0515532 0.0570913 0.0527801 0.0515532 0.0475697 0.0527801 0.0487748 0 0 0.0106568 0.00984673 0 0 0.00984673 0.00904587 0.0106568 0.00984673 0.0200274 0.0185036 0.00984673 0.00904587 0.0185036 0.0170178 0 0 0.00904587 0.00827633 0 0 0.00827633 0.00755219 0.00904587 0.00827633 0.0170178 0.0155991 0.00827633 0.00755219 0.0155991 0.0142669 0.0200274 0.0185036 0.0282311 0.0260576 0.0185036 0.0170178 0.0260576 0.0239722 0.0282311 0.0260576 0.0351627 0.0324222 0.0260576 0.0239722 0.0324222 0.02983 0.0170178 0.0155991 0.0239722 0.0219991 0.0155991 0.0142669 0.0219991 0.020155 0.0239722 0.0219991 0.02983 0.0273997 0.0219991 0.020155 0.0273997 0.02514 0 0 0.00755219 0.00688144 0 0 0.00688144 0.00626795 0.00755219 0.00688144 0.0142669 0.0130325 0.00688144 0.00626795 0.0130325 0.0119012 0 0 0.00626795 0.00571286 0 0 0.00571286 0.00521567 0.00626795 0.00571286 0.0119012 0.0108744 0.00571286 0.00521567 0.0108744 0.00995087 0.0142669 0.0130325 0.020155 0.0184488 0.0130325 0.0119012 0.0184488 0.0168845 0.020155 0.0184488 0.02514 0.0230543 0.0184488 0.0168845 0.0230543 0.0211422 0.0119012 0.0108744 0.0168845 0.0154615 0.0108744 0.00995087 0.0154615 0.0141771 0.0168845 0.0154615 0.0211422 0.0193999 0.0154615 0.0141771 0.0193999 0.017822 0.0351627 0.0324222 0.0407417 0.0375427 0.0324222 0.02983 0.0375427 0.0345498 0.0407417 0.0375427 0.0448915 0.041368 0.0375427 0.0345498 0.041368 0.0380971 0.02983 0.0273997 0.0345498 0.0317655 0.0273997 0.02514 0.0317655 0.0291888 0.0345498 0.0317655 0.0380971 0.0350715 0.0317655 0.0291888 0.0350715 0.0322815 0.0448915 0.041368 0.0475697 0.0438744 0.041368 0.0380971 0.0438744 0.0404611 0.0475697 0.0438744 0.0487748 0.0450713 0.0438744 0.0404611 0.0450713 0.0416587 0.0380971 0.0350715 0.0404611 0.0373149 0.0350715 0.0322815 0.0373149 0.0344196 0.0404611 0.0373149 0.0416587 0.0385174 0.0373149 0.0344196 0.0385174 0.0356264 0.02514 0.0230543 0.0291888 0.0268161 0.0230543 0.0211422 0.0268161 0.024641 0.0291888 0.0268161 0.0322815 0.0297163 0.0268161 0.024641 0.0297163 0.0273641 0.0211422 0.0193999 0.024641 0.022656 0.0193999 0.017822 0.022656 0.0208521 0.024641 0.022656 0.0273641 0.0252129 0.022656 0.0208521 0.0252129 0.0232508 0.0322815 0.0297163 0.0344196 0.0317583 0.0297163 0.0273641 0.0317583 0.029315 0.0344196 0.0317583 0.0356264 0.0329657 0.0317583 0.029315 0.0329657 0.0305163 0.0273641 0.0252129 0.029315 0.0270742 0.0252129 0.0232508 0.0270742 0.0250214 0.029315 0.0270742 0.0305163 0.028261 0.0270742 0.0250214 0.028261 0.0261838 -0.0625 0.0732567 -0.0615234 0.0721322 0.0732567 0.0766955 0.0721322 0.0755342 -0.0615234 0.0721322 -0.0585938 0.0683666 0.0721322 0.0755342 0.0683666 0.0717301 0.0766955 0.0708094 0.0755342 0.0697764 0.0708094 0.0664641 0.0697764 0.0655656 0.0755342 0.0697764 0.0717301 0.0663085 0.0697764 0.0655656 0.0663085 0.0624543 -0.0585938 0.0683666 -0.0537109 0.0619975 0.0683666 0.0717301 0.0619975 0.0653378 -0.0537109 0.0619975 -0.046875 0.0530995 0.0619975 0.0653378 0.0530995 0.0564683 0.0717301 0.0663085 0.0653378 0.0605014 0.0663085 0.0624543 0.0605014 0.0572602 0.0653378 0.0605014 0.0564683 0.0525365 0.0605014 0.0572602 0.0525365 0.0502113 0.0664641 0.0616415 0.0655656 0.0609042 0.0616415 0.0570913 0.0609042 0.0565255 0.0655656 0.0609042 0.0624543 0.0581944 0.0609042 0.0565255 0.0581944 0.0542208 0.0570913 0.0527801 0.0565255 0.0523879 0.0527801 0.0487748 0.0523879 0.0485513 0.0565255 0.0523879 0.0542208 0.0504708 0.0523879 0.0485513 0.0504708 0.0469916 0.0624543 0.0581944 0.0572602 0.0536642 0.0581944 0.0542208 0.0536642 0.0503357 0.0572602 0.0536642 0.0502113 0.0475604 0.0536642 0.0503357 0.0475604 0.0451112 0.0542208 0.0504708 0.0503357 0.047183 0.0504708 0.0469916 0.047183 0.0442392 0.0503357 0.047183 0.0451112 0.0427461 0.047183 0.0442392 0.0427461 0.0404907 -0.046875 0.0530995 -0.0380859 0.0418363 0.0530995 0.0564683 0.0418363 0.0453621 -0.0380859 0.0418363 -0.0273438 0.0285943 0.0418363 0.0453621 0.0285943 0.0325553 0.0564683 0.0525365 0.0453621 0.0427653 0.0525365 0.0502113 0.0427653 0.0416961 0.0453621 0.0427653 0.0325553 0.0318515 0.0427653 0.0416961 0.0318515 0.0323368 -0.0273438 0.0285943 -0.0146484 0.014388 0.0285943 0.0325553 0.014388 0.019249 -0.0146484 0.014388 0 0.00219037 0.014388 0.019249 0.00219037 0.00792026 0.0325553 0.0318515 0.019249 0.0209436 0.0318515 0.0323368 0.0209436 0.0230087 0.019249 0.0209436 0.00792026 0.0115362 0.0209436 0.0230087 0.0115362 0.0146909 0.0502113 0.0475604 0.0416961 0.040261 0.0475604 0.0451112 0.040261 0.0388864 0.0416961 0.040261 0.0323368 0.0322999 0.040261 0.0388864 0.0322999 0.0320991 0.0451112 0.0427461 0.0388864 0.0374524 0.0427461 0.0404907 0.0374524 0.0359937 0.0388864 0.0374524 0.0320991 0.0316566 0.0374524 0.0359937 0.0316566 0.0310349 0.0323368 0.0322999 0.0230087 0.024341 0.0322999 0.0320991 0.024341 0.0252501 0.0230087 0.024341 0.0146909 0.0170531 0.024341 0.0252501 0.0170531 0.0188239 0.0320991 0.0316566 0.0252501 0.0257444 0.0316566 0.0310349 0.0257444 0.0259166 0.0252501 0.0257444 0.0188239 0.0200805 0.0257444 0.0259166 0.0200805 0.0209222 0.0487748 0.0450713 0.0485513 0.0450065 0.0450713 0.0416587 0.0450065 0.0417392 0.0485513 0.0450065 0.0469916 0.0437682 0.0450065 0.0417392 0.0437682 0.040785 0.0416587 0.0385174 0.0417392 0.0387273 0.0385174 0.0356264 0.0387273 0.0359486 0.0417392 0.0387273 0.040785 0.038021 0.0387273 0.0359486 0.038021 0.0354558 0.0469916 0.0437682 0.0442392 0.0414866 0.0437682 0.040785 0.0414866 0.0389127 0.0442392 0.0414866 0.0404907 0.0383331 0.0414866 0.0389127 0.0383331 0.0362702 0.040785 0.038021 0.0389127 0.0365017 0.038021 0.0354558 0.0365017 0.0342393 0.0389127 0.0365017 0.0362702 0.0342972 0.0365017 0.0342393 0.0342972 0.0324095 0.0356264 0.0329657 0.0359486 0.0333821 0.0329657 0.0305163 0.0333821 0.0310085 0.0359486 0.0333821 0.0354558 0.0330707 0.0333821 0.0310085 0.0330707 0.0308487 0.0305163 0.028261 0.0310085 0.0288105 0.028261 0.0261838 0.0288105 0.0267726 0.0310085 0.0288105 0.0308487 0.0287747 0.0288105 0.0267726 0.0287747 0.026835 0.0354558 0.0330707 0.0342393 0.0321123 0.0330707 0.0308487 0.0321123 0.0301085 0.0342393 0.0321123 0.0324095 0.0306025 0.0321123 0.0301085 0.0306025 0.0288714 0.0308487 0.0287747 0.0301085 0.0282172 0.0287747 0.026835 0.0282172 0.0264281 0.0301085 0.0282172 0.0288714 0.0272113 0.0282172 0.0264281 0.0272113 0.0256169 0.0404907 0.0383331 0.0359937 0.0345154 0.0383331 0.0362702 0.0345154 0.0330322 0.0359937 0.0345154 0.0310349 0.0302672 0.0345154 0.0330322 0.0302672 0.0293901 0.0362702 0.0342972 0.0330322 0.0315544 0.0342972 0.0324095 0.0315544 0.030091 0.0330322 0.0315544 0.0293901 0.0284323 0.0315544 0.030091 0.0284323 0.0274167 0.0310349 0.0302672 0.0259166 0.0258294 0.0302672 0.0293901 0.0258294 0.0255394 0.0259166 0.0258294 0.0209222 0.0214276 0.0258294 0.0255394 0.0214276 0.0216633 0.0293901 0.0284323 0.0255394 0.0250913 0.0284323 0.0274167 0.0250913 0.0245203 0.0255394 0.0250913 0.0216633 0.0216826 0.0250913 0.0245203 0.0216826 0.021528 0.0324095 0.0306025 0.030091 0.0286479 0.0306025 0.0288714 0.0286479 0.027229 0.030091 0.0286479 0.0274167 0.0263607 0.0286479 0.027229 0.0263607 0.0252772 0.0288714 0.0272113 0.027229 0.0258365 0.0272113 0.0256169 0.0258365 0.0244708 0.027229 0.0258365 0.0252772 0.0241753 0.0258365 0.0244708 0.0241753 0.0230614 0.0274167 0.0263607 0.0245203 0.0238535 0.0263607 0.0252772 0.0238535 0.0231114 0.0245203 0.0238535 0.021528 0.0212327 0.0238535 0.0231114 0.0212327 0.0208224 0.0252772 0.0241753 0.0231114 0.0223095 0.0241753 0.0230614 0.0223095 0.0214593 0.0231114 0.0223095 0.0208224 0.020317 0.0223095 0.0214593 0.020317 0.0197315 0 0 0.00521567 0.00477498 0 0 0.00477498 0.0043891 0.00521567 0.00477498 0.00995087 0.00912796 0.00477498 0.0043891 0.00912796 0.00840246 0 0 0.0043891 0.00405643 0 0 0.00405643 0.00377584 0.0043891 0.00405643 0.00840246 0.0077712 0.00405643 0.00377584 0.0077712 0.00723147 0.00995087 0.00912796 0.0141771 0.0130268 0.00912796 0.00840246 0.0130268 0.0120055 0.0141771 0.0130268 0.017822 0.0164017 0.0130268 0.0120055 0.0164017 0.0151316 0.00840246 0.0077712 0.0120055 0.0111082 0.0077712 0.00723147 0.0111082 0.0103298 0.0120055 0.0111082 0.0151316 0.0140044 0.0111082 0.0103298 0.0140044 0.0130126 0 0 0.00377584 0.00354693 0 0 0.00354693 0.00337026 0.00377584 0.00354693 0.00723147 0.00678141 0.00354693 0.00337026 0.00678141 0.00642011 0 0 0.00337026 0.00324762 0 0 0.00324762 0.00318204 0.00337026 0.00324762 0.00642011 0.00614777 0.00324762 0.00318204 0.00614777 0.00596492 0.00723147 0.00678141 0.0103298 0.00966617 0.00678141 0.00642011 0.00966617 0.00911328 0.0103298 0.00966617 0.0130126 0.012149 0.00966617 0.00911328 0.012149 0.011406 0.00642011 0.00614777 0.00911328 0.0086674 0.00614777 0.00596492 0.0086674 0.00832343 0.00911328 0.0086674 0.011406 0.0107753 0.0086674 0.00832343 0.0107753 0.0102459 0.017822 0.0164017 0.0208521 0.0192198 0.0164017 0.0151316 0.0192198 0.0177496 0.0208521 0.0192198 0.0232508 0.0214657 0.0192198 0.0177496 0.0214657 0.0198458 0.0151316 0.0140044 0.0177496 0.0164316 0.0140044 0.0130126 0.0164316 0.0152561 0.0177496 0.0164316 0.0198458 0.0183794 0.0164316 0.0152561 0.0183794 0.0170546 0.0232508 0.0214657 0.0250214 0.0231428 0.0214657 0.0198458 0.0231428 0.0214248 0.0250214 0.0231428 0.0261838 0.0242701 0.0231428 0.0214248 0.0242701 0.0225059 0.0198458 0.0183794 0.0214248 0.0198546 0.0183794 0.0170546 0.0198546 0.0184191 0.0214248 0.0198546 0.0225059 0.0208778 0.0198546 0.0184191 0.0208778 0.0193726 0.0130126 0.012149 0.0152561 0.014213 0.012149 0.011406 0.014213 0.0132914 0.0152561 0.014213 0.0170546 0.0158595 0.014213 0.0132914 0.0158595 0.0147808 0.011406 0.0107753 0.0132914 0.0124793 0.0107753 0.0102459 0.0124793 0.0117614 0.0132914 0.0124793 0.0147808 0.0138045 0.0124793 0.0117614 0.0138045 0.0129134 0.0170546 0.0158595 0.0184191 0.0171052 0.0158595 0.0147808 0.0171052 0.015899 0.0184191 0.0171052 0.0193726 0.0179772 0.0171052 0.015899 0.0179772 0.0166784 0.0147808 0.0138045 0.015899 0.014786 0.0138045 0.0129134 0.014786 0.0137498 0.015899 0.014786 0.0166784 0.0154628 0.014786 0.0137498 0.0154628 0.0143166 0 0 0.00318204 0.00317905 0 0 0.00317905 0.00324234 0.00318204 0.00317905 0.00596492 0.00587371 0.00317905 0.00324234 0.00587371 0.00586837 0 0 0.00324234 0.00339014 0 0 0.00339014 0.00358837 0.00324234 0.00339014 0.00586837 0.00595936 0.00339014 0.00358837 0.00595936 0.0060606 0.00596492 0.00587371 0.00832343 0.0080755 0.00587371 0.00586837 0.0080755 0.00790509 0.00832343 0.0080755 0.0102459 0.00980436 0.0080755 0.00790509 0.00980436 0.00942314 0.00586837 0.00595936 0.00790509 0.00780787 0.00595936 0.0060606 0.00780787 0.00766737 0.00790509 0.00780787 0.00942314 0.00909173 0.00780787 0.00766737 0.00909173 0.00868669 0 0 0.00358837 0.00398768 0 0 0.00398768 0.00396449 0.00358837 0.00398768 0.0060606 0.00635347 0.00398768 0.00396449 0.00635347 0.0058515 0 0 0.00396449 0.00556768 0 0 0.00556768 0 0.00396449 0.00556768 0.0058515 0.00758011 0.00556768 0 0.00758011 0 0.0060606 0.00635347 0.00766737 0.00768263 0.00635347 0.0058515 0.00768263 0.00677866 0.00766737 0.00768263 0.00868669 0.00844929 0.00768263 0.00677866 0.00844929 0.00728601 0.0058515 0.00758011 0.00677866 0.00859254 0.00758011 0 0.00859254 0 0.00677866 0.00859254 0.00728601 0.00919771 0.00859254 0 0.00919771 0 0.0102459 0.00980436 0.0117614 0.0111203 0.00980436 0.00942314 0.0111203 0.0105257 0.0117614 0.0111203 0.0129134 0.0120902 0.0111203 0.0105257 0.0120902 0.0113068 0.00942314 0.00909173 0.0105257 0.00997043 0.00909173 0.00868669 0.00997043 0.00933943 0.0105257 0.00997043 0.0113068 0.0105651 0.00997043 0.00933943 0.0105651 0.00976293 0.0129134 0.0120902 0.0137498 0.0127758 0.0120902 0.0113068 0.0127758 0.0118412 0.0137498 0.0127758 0.0143166 0.0132293 0.0127758 0.0118412 0.0132293 0.0121847 0.0113068 0.0105651 0.0118412 0.0109585 0.0105651 0.00976293 0.0109585 0.0100371 0.0118412 0.0109585 0.0121847 0.0112047 0.0109585 0.0100371 0.0112047 0.0102076 0.00868669 0.00844929 0.00933943 0.00891756 0.00844929 0.00728601 0.00891756 0.0076015 0.00933943 0.00891756 0.00976293 0.00921971 0.00891756 0.0076015 0.00921971 0.00781539 0.00728601 0.00919771 0.0076015 0.0096115 0.00919771 0 0.0096115 0 0.0076015 0.0096115 0.00781539 0.00991269 0.0096115 0 0.00991269 0 0.00976293 0.00921971 0.0100371 0.00942017 0.00921971 0.00781539 0.00942017 0.0079672 0.0100371 0.00942017 0.0102076 0.00955157 0.00942017 0.0079672 0.00955157 0.00807533 0.00781539 0.00991269 0.0079672 0.0101397 0.00991269 0 0.0101397 0 0.0079672 0.0101397 0.00807533 0.010312 0.0101397 0 0.010312 0 0.0261838 0.0242701 0.0267726 0.0248804 0.0242701 0.0225059 0.0248804 0.0231205 0.0267726 0.0248804 0.026835 0.0250171 0.0248804 0.0231205 0.0250171 0.0233093 0.0225059 0.0208778 0.0231205 0.0214801 0.0208778 0.0193726 0.0214801 0.0199471 0.0231205 0.0214801 0.0233093 0.0217005 0.0214801 0.0199471 0.0217005 0.0201804 0.026835 0.0250171 0.0264281 0.024732 0.0250171 0.0233093 0.024732 0.0231198 0.0264281 0.024732 0.0256169 0.024083 0.024732 0.0231198 0.024083 0.0226042 0.0233093 0.0217005 0.0231198 0.0215832 0.0217005 0.0201804 0.0215832 0.0201141 0.0231198 0.0215832 0.0226042 0.0211753 0.0215832 0.0201141 0.0211753 0.0197916 0.0193726 0.0179772 0.0199471 0.0185093 0.0179772 0.0166784 0.0185093 0.0171553 0.0199471 0.0185093 0.0201804 0.018739 0.0185093 0.0171553 0.018739 0.017367 0.0166784 0.0154628 0.0171553 0.015874 0.0154628 0.0143166 0.015874 0.0146551 0.0171553 0.015874 0.017367 0.0160568 0.015874 0.0146551 0.0160568 0.0148019 0.0201804 0.018739 0.0201141 0.0187055 0.018739 0.017367 0.0187055 0.0173511 0.0201141 0.0187055 0.0197916 0.0184487 0.0187055 0.0173511 0.0184487 0.0171438 0.017367 0.0160568 0.0173511 0.0160465 0.0160568 0.0148019 0.0160465 0.0147893 0.0173511 0.0160465 0.0171438 0.0158758 0.0160465 0.0147893 0.0158758 0.0146462 0.0256169 0.024083 0.0244708 0.0231314 0.024083 0.0226042 0.0231314 0.0218169 0.0244708 0.0231314 0.0230614 0.0219397 0.0231314 0.0218169 0.0219397 0.0208128 0.0226042 0.0211753 0.0218169 0.0205258 0.0211753 0.0197916 0.0205258 0.0192563 0.0218169 0.0205258 0.0208128 0.0196828 0.0205258 0.0192563 0.0196828 0.018551 0.0230614 0.0219397 0.0214593 0.0205691 0.0219397 0.0208128 0.0205691 0.0196453 0.0214593 0.0205691 0.0197315 0.0190777 0.0205691 0.0196453 0.0190777 0.0183646 0.0208128 0.0196828 0.0196453 0.0186929 0.0196828 0.018551 0.0186929 0.0177162 0.0196453 0.0186929 0.0183646 0.0175997 0.0186929 0.0177162 0.0175997 0.0167896 0.0197916 0.0184487 0.0192563 0.0180075 0.0184487 0.0171438 0.0180075 0.0167797 0.0192563 0.0180075 0.018551 0.0174196 0.0180075 0.0167797 0.0174196 0.0162916 0.0171438 0.0158758 0.0167797 0.0155751 0.0158758 0.0146462 0.0155751 0.0143982 0.0167797 0.0155751 0.0162916 0.0151722 0.0155751 0.0143982 0.0151722 0.0140689 0.018551 0.0174196 0.0177162 0.01672 0.0174196 0.0162916 0.01672 0.0157097 0.0177162 0.01672 0.0167896 0.0159411 0.01672 0.0157097 0.0159411 0.0150615 0.0162916 0.0151722 0.0157097 0.0146929 0.0151722 0.0140689 0.0146929 0.0136792 0.0157097 0.0146929 0.0150615 0.0141601 0.0146929 0.0136792 0.0141601 0.013248 0.0143166 0.0132293 0.0146551 0.013493 0.0132293 0.0121847 0.013493 0.0123779 0.0146551 0.013493 0.0148019 0.0136015 0.013493 0.0123779 0.0136015 0.0124513 0.0121847 0.0112047 0.0123779 0.0113394 0.0112047 0.0102076 0.0113394 0.0103014 0.0123779 0.0113394 0.0124513 0.0113867 0.0113394 0.0103014 0.0113867 0.0103354 0.0148019 0.0136015 0.0147893 0.0135832 0.0136015 0.0124513 0.0135832 0.0124283 0.0147893 0.0135832 0.0146462 0.0134624 0.0135832 0.0124283 0.0134624 0.0123281 0.0124513 0.0113867 0.0124283 0.0113645 0.0113867 0.0103354 0.0113645 0.0103216 0.0124283 0.0113645 0.0123281 0.0112866 0.0113645 0.0103216 0.0112866 0.010269 0.0102076 0.00955157 0.0103014 0.00963144 0.00955157 0.00807533 0.00963144 0.00814953 0.0103014 0.00963144 0.0103354 0.00967031 0.00963144 0.00814953 0.00967031 0.0081957 0.00807533 0.010312 0.00814953 0.0104413 0.010312 0 0.0104413 0 0.00814953 0.0104413 0.0081957 0.0105351 0.0104413 0 0.0105351 0 0.0103354 0.00967031 0.0103216 0.00967538 0.00967031 0.0081957 0.00967538 0.00821802 0.0103216 0.00967538 0.010269 0.00965224 0.00967538 0.00821802 0.00965224 0.00821986 0.0081957 0.0105351 0.00821802 0.0105989 0.0105351 0 0.0105989 0 0.00821802 0.0105989 0.00821986 0.0106368 0.0105989 0 0.0106368 0 0.0146462 0.0134624 0.0143982 0.01326 0.0134624 0.0123281 0.01326 0.0121671 0.0143982 0.01326 0.0140689 0.0129949 0.01326 0.0121671 0.0129949 0.0119594 0.0123281 0.0112866 0.0121671 0.0111648 0.0112866 0.010269 0.0111648 0.0101853 0.0121671 0.0111648 0.0119594 0.0110093 0.0111648 0.0101853 0.0110093 0.0100773 0.0140689 0.0129949 0.0136792 0.012684 0.0129949 0.0119594 0.012684 0.0117179 0.0136792 0.012684 0.013248 0.0123421 0.012684 0.0117179 0.0123421 0.0114543 0.0119594 0.0110093 0.0117179 0.0108293 0.0110093 0.0100773 0.0108293 0.00995137 0.0117179 0.0108293 0.0114543 0.0106333 0.0108293 0.00995137 0.0106333 0.00981332 0.010269 0.00965224 0.0101853 0.00960573 0.00965224 0.00821986 0.00960573 0.00820419 0.0101853 0.00960573 0.0100773 0.00954027 0.00960573 0.00820419 0.00954027 0.00817376 0.00821986 0.0106368 0.00820419 0.0106522 0.0106368 0 0.0106522 0 0.00820419 0.0106522 0.00817376 0.010648 0.0106522 0 0.010648 0 0.0100773 0.00954027 0.00995137 0.00946003 0.00954027 0.00817376 0.00946003 0.00813114 0.00995137 0.00946003 0.00981332 0.00936893 0.00946003 0.00813114 0.00936893 0.00807874 0.00817376 0.010648 0.00813114 0.0106268 0.010648 0 0.0106268 0 0.00813114 0.0106268 0.00807874 0.0105907 0.0106268 0 0.0105907 0 0 0.00219037 0 -0.00385111 0.00219037 0.00792026 -0.00385111 0.00113173 0 -0.00