# vtk DataFile Version 3.0
#This file was generated by the deal.II library on 2015/5/9 at 11:47:55
ASCII
DATASET UNSTRUCTURED_GRID

POINTS 4096 double
0 0 0
0.125 0 0
0 0.125 0
0.125 0.125 0
0 0 0.125
0.125 0 0.125
0 0.125 0.125
0.125 0.125 0.125
0.125 0 0
0.25 0 0
0.125 0.125 0
0.25 0.125 0
0.125 0 0.125
0.25 0 0.125
0.125 0.125 0.125
0.25 0.125 0.125
0 0.125 0
0.125 0.125 0
0 0.25 0
0.125 0.25 0
0 0.125 0.125
0.125 0.125 0.125
0 0.25 0.125
0.125 0.25 0.125
0.125 0.125 0
0.25 0.125 0
0.125 0.25 0
0.25 0.25 0
0.125 0.125 0.125
0.25 0.125 0.125
0.125 0.25 0.125
0.25 0.25 0.125
0 0 0.125
0.125 0 0.125
0 0.125 0.125
0.125 0.125 0.125
0 0 0.25
0.125 0 0.25
0 0.125 0.25
0.125 0.125 0.25
0.125 0 0.125
0.25 0 0.125
0.125 0.125 0.125
0.25 0.125 0.125
0.125 0 0.25
0.25 0 0.25
0.125 0.125 0.25
0.25 0.125 0.25
0 0.125 0.125
0.125 0.125 0.125
0 0.25 0.125
0.125 0.25 0.125
0 0.125 0.25
0.125 0.125 0.25
0 0.25 0.25
0.125 0.25 0.25
0.125 0.125 0.125
0.25 0.125 0.125
0.125 0.25 0.125
0.25 0.25 0.125
0.125 0.125 0.25
0.25 0.125 0.25
0.125 0.25 0.25
0.25 0.25 0.25
0.25 0 0
0.375 0 0
0.25 0.125 0
0.375 0.125 0
0.25 0 0.125
0.375 0 0.125
0.25 0.125 0.125
0.375 0.125 0.125
0.375 0 0
0.5 0 0
0.375 0.125 0
0.5 0.125 0
0.375 0 0.125
0.5 0 0.125
0.375 0.125 0.125
0.5 0.125 0.125
0.25 0.125 0
0.375 0.125 0
0.25 0.25 0
0.375 0.25 0
0.25 0.125 0.125
0.375 0.125 0.125
0.25 0.25 0.125
0.375 0.25 0.125
0.375 0.125 0
0.5 0.125 0
0.375 0.25 0
0.5 0.25 0
0.375 0.125 0.125
0.5 0.125 0.125
0.375 0.25 0.125
0.5 0.25 0.125
0.25 0 0.125
0.375 0 0.125
0.25 0.125 0.125
0.375 0.125 0.125
0.25 0 0.25
0.375 0 0.25
0.25 0.125 0.25
0.375 0.125 0.25
0.375 0 0.125
0.5 0 0.125
0.375 0.125 0.125
0.5 0.125 0.125
0.375 0 0.25
0.5 0 0.25
0.375 0.125 0.25
0.5 0.125 0.25
0.25 0.125 0.125
0.375 0.125 0.125
0.25 0.25 0.125
0.375 0.25 0.125
0.25 0.125 0.25
0.375 0.125 0.25
0.25 0.25 0.25
0.375 0.25 0.25
0.375 0.125 0.125
0.5 0.125 0.125
0.375 0.25 0.125
0.5 0.25 0.125
0.375 0.125 0.25
0.5 0.125 0.25
0.375 0.25 0.25
0.5 0.25 0.25
0 0.25 0
0.125 0.25 0
0 0.375 0
0.125 0.375 0
0 0.25 0.125
0.125 0.25 0.125
0 0.375 0.125
0.125 0.375 0.125
0.125 0.25 0
0.25 0.25 0
0.125 0.375 0
0.25 0.375 0
0.125 0.25 0.125
0.25 0.25 0.125
0.125 0.375 0.125
0.25 0.375 0.125
0 0.375 0
0.125 0.375 0
0 0.5 0
0.125 0.5 0
0 0.375 0.125
0.125 0.375 0.125
0 0.5 0.125
0.125 0.5 0.125
0.125 0.375 0
0.25 0.375 0
0.125 0.5 0
0.25 0.5 0
0.125 0.375 0.125
0.25 0.375 0.125
0.125 0.5 0.125
0.25 0.5 0.125
0 0.25 0.125
0.125 0.25 0.125
0 0.375 0.125
0.125 0.375 0.125
0 0.25 0.25
0.125 0.25 0.25
0 0.375 0.25
0.125 0.375 0.25
0.125 0.25 0.125
0.25 0.25 0.125
0.125 0.375 0.125
0.25 0.375 0.125
0.125 0.25 0.25
0.25 0.25 0.25
0.125 0.375 0.25
0.25 0.375 0.25
0 0.375 0.125
0.125 0.375 0.125
0 0.5 0.125
0.125 0.5 0.125
0 0.375 0.25
0.125 0.375 0.25
0 0.5 0.25
0.125 0.5 0.25
0.125 0.375 0.125
0.25 0.375 0.125
0.125 0.5 0.125
0.25 0.5 0.125
0.125 0.375 0.25
0.25 0.375 0.25
0.125 0.5 0.25
0.25 0.5 0.25
0.25 0.25 0
0.375 0.25 0
0.25 0.375 0
0.375 0.375 0
0.25 0.25 0.125
0.375 0.25 0.125
0.25 0.375 0.125
0.375 0.375 0.125
0.375 0.25 0
0.5 0.25 0
0.375 0.375 0
0.5 0.375 0
0.375 0.25 0.125
0.5 0.25 0.125
0.375 0.375 0.125
0.5 0.375 0.125
0.25 0.375 0
0.375 0.375 0
0.25 0.5 0
0.375 0.5 0
0.25 0.375 0.125
0.375 0.375 0.125
0.25 0.5 0.125
0.375 0.5 0.125
0.375 0.375 0
0.5 0.375 0
0.375 0.5 0
0.5 0.5 0
0.375 0.375 0.125
0.5 0.375 0.125
0.375 0.5 0.125
0.5 0.5 0.125
0.25 0.25 0.125
0.375 0.25 0.125
0.25 0.375 0.125
0.375 0.375 0.125
0.25 0.25 0.25
0.375 0.25 0.25
0.25 0.375 0.25
0.375 0.375 0.25
0.375 0.25 0.125
0.5 0.25 0.125
0.375 0.375 0.125
0.5 0.375 0.125
0.375 0.25 0.25
0.5 0.25 0.25
0.375 0.375 0.25
0.5 0.375 0.25
0.25 0.375 0.125
0.375 0.375 0.125
0.25 0.5 0.125
0.375 0.5 0.125
0.25 0.375 0.25
0.375 0.375 0.25
0.25 0.5 0.25
0.375 0.5 0.25
0.375 0.375 0.125
0.5 0.375 0.125
0.375 0.5 0.125
0.5 0.5 0.125
0.375 0.375 0.25
0.5 0.375 0.25
0.375 0.5 0.25
0.5 0.5 0.25
0 0 0.25
0.125 0 0.25
0 0.125 0.25
0.125 0.125 0.25
0 0 0.375
0.125 0 0.375
0 0.125 0.375
0.125 0.125 0.375
0.125 0 0.25
0.25 0 0.25
0.125 0.125 0.25
0.25 0.125 0.25
0.125 0 0.375
0.25 0 0.375
0.125 0.125 0.375
0.25 0.125 0.375
0 0.125 0.25
0.125 0.125 0.25
0 0.25 0.25
0.125 0.25 0.25
0 0.125 0.375
0.125 0.125 0.375
0 0.25 0.375
0.125 0.25 0.375
0.125 0.125 0.25
0.25 0.125 0.25
0.125 0.25 0.25
0.25 0.25 0.25
0.125 0.125 0.375
0.25 0.125 0.375
0.125 0.25 0.375
0.25 0.25 0.375
0 0 0.375
0.125 0 0.375
0 0.125 0.375
0.125 0.125 0.375
0 0 0.5
0.125 0 0.5
0 0.125 0.5
0.125 0.125 0.5
0.125 0 0.375
0.25 0 0.375
0.125 0.125 0.375
0.25 0.125 0.375
0.125 0 0.5
0.25 0 0.5
0.125 0.125 0.5
0.25 0.125 0.5
0 0.125 0.375
0.125 0.125 0.375
0 0.25 0.375
0.125 0.25 0.375
0 0.125 0.5
0.125 0.125 0.5
0 0.25 0.5
0.125 0.25 0.5
0.125 0.125 0.375
0.25 0.125 0.375
0.125 0.25 0.375
0.25 0.25 0.375
0.125 0.125 0.5
0.25 0.125 0.5
0.125 0.25 0.5
0.25 0.25 0.5
0.25 0 0.25
0.375 0 0.25
0.25 0.125 0.25
0.375 0.125 0.25
0.25 0 0.375
0.375 0 0.375
0.25 0.125 0.375
0.375 0.125 0.375
0.375 0 0.25
0.5 0 0.25
0.375 0.125 0.25
0.5 0.125 0.25
0.375 0 0.375
0.5 0 0.375
0.375 0.125 0.375
0.5 0.125 0.375
0.25 0.125 0.25
0.375 0.125 0.25
0.25 0.25 0.25
0.375 0.25 0.25
0.25 0.125 0.375
0.375 0.125 0.375
0.25 0.25 0.375
0.375 0.25 0.375
0.375 0.125 0.25
0.5 0.125 0.25
0.375 0.25 0.25
0.5 0.25 0.25
0.375 0.125 0.375
0.5 0.125 0.375
0.375 0.25 0.375
0.5 0.25 0.375
0.25 0 0.375
0.375 0 0.375
0.25 0.125 0.375
0.375 0.125 0.375
0.25 0 0.5
0.375 0 0.5
0.25 0.125 0.5
0.375 0.125 0.5
0.375 0 0.375
0.5 0 0.375
0.375 0.125 0.375
0.5 0.125 0.375
0.375 0 0.5
0.5 0 0.5
0.375 0.125 0.5
0.5 0.125 0.5
0.25 0.125 0.375
0.375 0.125 0.375
0.25 0.25 0.375
0.375 0.25 0.375
0.25 0.125 0.5
0.375 0.125 0.5
0.25 0.25 0.5
0.375 0.25 0.5
0.375 0.125 0.375
0.5 0.125 0.375
0.375 0.25 0.375
0.5 0.25 0.375
0.375 0.125 0.5
0.5 0.125 0.5
0.375 0.25 0.5
0.5 0.25 0.5
0 0.25 0.25
0.125 0.25 0.25
0 0.375 0.25
0.125 0.375 0.25
0 0.25 0.375
0.125 0.25 0.375
0 0.375 0.375
0.125 0.375 0.375
0.125 0.25 0.25
0.25 0.25 0.25
0.125 0.375 0.25
0.25 0.375 0.25
0.125 0.25 0.375
0.25 0.25 0.375
0.125 0.375 0.375
0.25 0.375 0.375
0 0.375 0.25
0.125 0.375 0.25
0 0.5 0.25
0.125 0.5 0.25
0 0.375 0.375
0.125 0.375 0.375
0 0.5 0.375
0.125 0.5 0.375
0.125 0.375 0.25
0.25 0.375 0.25
0.125 0.5 0.25
0.25 0.5 0.25
0.125 0.375 0.375
0.25 0.375 0.375
0.125 0.5 0.375
0.25 0.5 0.375
0 0.25 0.375
0.125 0.25 0.375
0 0.375 0.375
0.125 0.375 0.375
0 0.25 0.5
0.125 0.25 0.5
0 0.375 0.5
0.125 0.375 0.5
0.125 0.25 0.375
0.25 0.25 0.375
0.125 0.375 0.375
0.25 0.375 0.375
0.125 0.25 0.5
0.25 0.25 0.5
0.125 0.375 0.5
0.25 0.375 0.5
0 0.375 0.375
0.125 0.375 0.375
0 0.5 0.375
0.125 0.5 0.375
0 0.375 0.5
0.125 0.375 0.5
0 0.5 0.5
0.125 0.5 0.5
0.125 0.375 0.375
0.25 0.375 0.375
0.125 0.5 0.375
0.25 0.5 0.375
0.125 0.375 0.5
0.25 0.375 0.5
0.125 0.5 0.5
0.25 0.5 0.5
0.25 0.25 0.25
0.375 0.25 0.25
0.25 0.375 0.25
0.375 0.375 0.25
0.25 0.25 0.375
0.375 0.25 0.375
0.25 0.375 0.375
0.375 0.375 0.375
0.375 0.25 0.25
0.5 0.25 0.25
0.375 0.375 0.25
0.5 0.375 0.25
0.375 0.25 0.375
0.5 0.25 0.375
0.375 0.375 0.375
0.5 0.375 0.375
0.25 0.375 0.25
0.375 0.375 0.25
0.25 0.5 0.25
0.375 0.5 0.25
0.25 0.375 0.375
0.375 0.375 0.375
0.25 0.5 0.375
0.375 0.5 0.375
0.375 0.375 0.25
0.5 0.375 0.25
0.375 0.5 0.25
0.5 0.5 0.25
0.375 0.375 0.375
0.5 0.375 0.375
0.375 0.5 0.375
0.5 0.5 0.375
0.25 0.25 0.375
0.375 0.25 0.375
0.25 0.375 0.375
0.375 0.375 0.375
0.25 0.25 0.5
0.375 0.25 0.5
0.25 0.375 0.5
0.375 0.375 0.5
0.375 0.25 0.375
0.5 0.25 0.375
0.375 0.375 0.375
0.5 0.375 0.375
0.375 0.25 0.5
0.5 0.25 0.5
0.375 0.375 0.5
0.5 0.375 0.5
0.25 0.375 0.375
0.375 0.375 0.375
0.25 0.5 0.375
0.375 0.5 0.375
0.25 0.375 0.5
0.375 0.375 0.5
0.25 0.5 0.5
0.375 0.5 0.5
0.375 0.375 0.375
0.5 0.375 0.375
0.375 0.5 0.375
0.5 0.5 0.375
0.375 0.375 0.5
0.5 0.375 0.5
0.375 0.5 0.5
0.5 0.5 0.5
0.5 0 0
0.625 0 0
0.5 0.125 0
0.625 0.125 0
0.5 0 0.125
0.625 0 0.125
0.5 0.125 0.125
0.625 0.125 0.125
0.625 0 0
0.75 0 0
0.625 0.125 0
0.75 0.125 0
0.625 0 0.125
0.75 0 0.125
0.625 0.125 0.125
0.75 0.125 0.125
0.5 0.125 0
0.625 0.125 0
0.5 0.25 0
0.625 0.25 0
0.5 0.125 0.125
0.625 0.125 0.125
0.5 0.25 0.125
0.625 0.25 0.125
0.625 0.125 0
0.75 0.125 0
0.625 0.25 0
0.75 0.25 0
0.625 0.125 0.125
0.75 0.125 0.125
0.625 0.25 0.125
0.75 0.25 0.125
0.5 0 0.125
0.625 0 0.125
0.5 0.125 0.125
0.625 0.125 0.125
0.5 0 0.25
0.625 0 0.25
0.5 0.125 0.25
0.625 0.125 0.25
0.625 0 0.125
0.75 0 0.125
0.625 0.125 0.125
0.75 0.125 0.125
0.625 0 0.25
0.75 0 0.25
0.625 0.125 0.25
0.75 0.125 0.25
0.5 0.125 0.125
0.625 0.125 0.125
0.5 0.25 0.125
0.625 0.25 0.125
0.5 0.125 0.25
0.625 0.125 0.25
0.5 0.25 0.25
0.625 0.25 0.25
0.625 0.125 0.125
0.75 0.125 0.125
0.625 0.25 0.125
0.75 0.25 0.125
0.625 0.125 0.25
0.75 0.125 0.25
0.625 0.25 0.25
0.75 0.25 0.25
0.75 0 0
0.875 0 0
0.75 0.125 0
0.875 0.125 0
0.75 0 0.125
0.875 0 0.125
0.75 0.125 0.125
0.875 0.125 0.125
0.875 0 0
1 0 0
0.875 0.125 0
1 0.125 0
0.875 0 0.125
1 0 0.125
0.875 0.125 0.125
1 0.125 0.125
0.75 0.125 0
0.875 0.125 0
0.75 0.25 0
0.875 0.25 0
0.75 0.125 0.125
0.875 0.125 0.125
0.75 0.25 0.125
0.875 0.25 0.125
0.875 0.125 0
1 0.125 0
0.875 0.25 0
1 0.25 0
0.875 0.125 0.125
1 0.125 0.125
0.875 0.25 0.125
1 0.25 0.125
0.75 0 0.125
0.875 0 0.125
0.75 0.125 0.125
0.875 0.125 0.125
0.75 0 0.25
0.875 0 0.25
0.75 0.125 0.25
0.875 0.125 0.25
0.875 0 0.125
1 0 0.125
0.875 0.125 0.125
1 0.125 0.125
0.875 0 0.25
1 0 0.25
0.875 0.125 0.25
1 0.125 0.25
0.75 0.125 0.125
0.875 0.125 0.125
0.75 0.25 0.125
0.875 0.25 0.125
0.75 0.125 0.25
0.875 0.125 0.25
0.75 0.25 0.25
0.875 0.25 0.25
0.875 0.125 0.125
1 0.125 0.125
0.875 0.25 0.125
1 0.25 0.125
0.875 0.125 0.25
1 0.125 0.25
0.875 0.25 0.25
1 0.25 0.25
0.5 0.25 0
0.625 0.25 0
0.5 0.375 0
0.625 0.375 0
0.5 0.25 0.125
0.625 0.25 0.125
0.5 0.375 0.125
0.625 0.375 0.125
0.625 0.25 0
0.75 0.25 0
0.625 0.375 0
0.75 0.375 0
0.625 0.25 0.125
0.75 0.25 0.125
0.625 0.375 0.125
0.75 0.375 0.125
0.5 0.375 0
0.625 0.375 0
0.5 0.5 0
0.625 0.5 0
0.5 0.375 0.125
[...]
POINT_DATA 4096
SCALARS solution_0 double 1
LOOKUP_TABLE default
0 0 0 0 0 0 0.000820312 0.000283729 0 0 0 0 0 0 0.000283729 0.000297683 0 0 0 0 0.000820312 0.000283729 0.00109375 0.000424832 0 0 0 0 0.000283729 0.000297683 0.000424832 0.000416009 0 0 0.000820312 0.000283729 0 0 0.00140625 0.000549919 0 0 0.000283729 0.000297683 0 0 0.000549919 0.000521853 0.000820312 0.000283729 0.00109375 0.000424832 0.00140625 0.000549919 0.001875 0.000815268 0.000283729 0.000297683 0.000424832 0.000416009 0.000549919 0.000521853 0.000815268 0.00073354 0 0 0 0 0 0 0.000297683 0.000186756 0 0 0 0 0 0 0.000186756 0.000133758 0 0 0 0 0.000297683 0.000186756 0.000416009 0.000265833 0 0 0 0 0.000186756 0.000133758 0.000265833 0.000194412 0 0 0.000297683 0.000186756 0 0 0.000521853 0.000317702 0 0 0.000186756 0.000133758 0 0 0.000317702 0.000221735 0.000297683 0.000186756 0.000416009 0.000265833 0.000521853 0.000317702 0.00073354 0.000457273 0.000186756 0.000133758 0.000265833 0.000194412 0.000317702 0.000221735 0.000457273 0.000326266 0 0 0 0 0.00109375 0.000424832 0.000820312 0.000329041 0 0 0 0 0.000424832 0.000416009 0.000329041 0.000343266 0 0 0 0 0.000820312 0.000329041 0 0.000107924 0 0 0 0 0.000329041 0.000343266 0.000107924 0.000171268 0.00109375 0.000424832 0.000820312 0.000329041 0.001875 0.000815268 0.00140625 0.00064432 0.000424832 0.000416009 0.000329041 0.000343266 0.000815268 0.00073354 0.00064432 0.000613057 0.000820312 0.000329041 0 0.000107924 0.00140625 0.00064432 0 0.000242675 0.000329041 0.000343266 0.000107924 0.000171268 0.00064432 0.000613057 0.000242675 0.000318153 0 0 0 0 0.000416009 0.000265833 0.000343266 0.00024344 0 0 0 0 0.000265833 0.000194412 0.00024344 0.000189242 0 0 0 0 0.000343266 0.00024344 0.000171268 0.000164796 0 0 0 0 0.00024344 0.000189242 0.000164796 0.000143922 0.000416009 0.000265833 0.000343266 0.00024344 0.00073354 0.000457273 0.000613057 0.000423707 0.000265833 0.000194412 0.00024344 0.000189242 0.000457273 0.000326266 0.000423707 0.000320493 0.000343266 0.00024344 0.000171268 0.000164796 0.000613057 0.000423707 0.000318153 0.000292417 0.00024344 0.000189242 0.000164796 0.000143922 0.000423707 0.000320493 0.000292417 0.000246177 0 0 0.00140625 0.000549919 0 0 0.00175781 0.000716402 0 0 0.000549919 0.000521853 0 0 0.000716402 0.000664528 0.00140625 0.000549919 0.001875 0.000815268 0.00175781 0.000716402 0.00234375 0.00105956 0.000549919 0.000521853 0.000815268 0.00073354 0.000716402 0.000664528 0.00105956 0.000935773 0 0 0.00175781 0.000716402 0 0 0.001875 0.000772599 0 0 0.000716402 0.000664528 0 0 0.000772599 0.000713134 0.00175781 0.000716402 0.00234375 0.00105956 0.001875 0.000772599 0.0025 0.00114204 0.000716402 0.000664528 0.00105956 0.000935773 0.000772599 0.000713134 0.00114204 0.00100467 0 0 0.000521853 0.000317702 0 0 0.000664528 0.000400704 0 0 0.000317702 0.000221735 0 0 0.000400704 0.000274702 0.000521853 0.000317702 0.00073354 0.000457273 0.000664528 0.000400704 0.000935773 0.00057893 0.000317702 0.000221735 0.000457273 0.000326266 0.000400704 0.000274702 0.00057893 0.000406196 0 0 0.000664528 0.000400704 0 0 0.000713134 0.000429181 0 0 0.000400704 0.000274702 0 0 0.000429181 0.000292601 0.000664528 0.000400704 0.000935773 0.00057893 0.000713134 0.000429181 0.00100467 0.000620668 0.000400704 0.000274702 0.00057893 0.000406196 0.000429181 0.000292601 0.000620668 0.000433237 0.001875 0.000815268 0.00140625 0.00064432 0.00234375 0.00105956 0.00175781 0.000844198 0.000815268 0.00073354 0.00064432 0.000613057 0.00105956 0.000935773 0.000844198 0.000785793 0.00140625 0.00064432 0 0.000242675 0.00175781 0.000844198 0 0.000332723 0.00064432 0.000613057 0.000242675 0.000318153 0.000844198 0.000785793 0.000332723 0.000413903 0.00234375 0.00105956 0.00175781 0.000844198 0.0025 0.00114204 0.001875 0.000911914 0.00105956 0.000935773 0.000844198 0.000785793 0.00114204 0.00100467 0.000911914 0.000844769 0.00175781 0.000844198 0 0.000332723 0.001875 0.000911914 0 0.000363712 0.000844198 0.000785793 0.000332723 0.000413903 0.000911914 0.000844769 0.000363712 0.000446865 0.00073354 0.000457273 0.000613057 0.000423707 0.000935773 0.00057893 0.000785793 0.000538683 0.000457273 0.000326266 0.000423707 0.000320493 0.00057893 0.000406196 0.000538683 0.00040036 0.000613057 0.000423707 0.000318153 0.000292417 0.000785793 0.000538683 0.000413903 0.00037446 0.000423707 0.000320493 0.000292417 0.000246177 0.000538683 0.00040036 0.00037446 0.000308625 0.000935773 0.00057893 0.000785793 0.000538683 0.00100467 0.000620668 0.000844769 0.000578171 0.00057893 0.000406196 0.000538683 0.00040036 0.000620668 0.000433237 0.000578171 0.000427395 0.000785793 0.000538683 0.000413903 0.00037446 0.000844769 0.000578171 0.000446865 0.000402693 0.000538683 0.00040036 0.00037446 0.000308625 0.000578171 0.000427395 0.000402693 0.00032975 0 0 0 0 0 0 0.000133758 9.12925e-005 0 0 0 0 0 0 9.12925e-005 6.20979e-005 0 0 0 0 0.000133758 9.12925e-005 0.000194412 0.000135653 0 0 0 0 9.12925e-005 6.20979e-005 0.000135653 9.19524e-005 0 0 0.000133758 9.12925e-005 0 0 0.000221735 0.000147704 0 0 9.12925e-005 6.20979e-005 0 0 0.000147704 9.67386e-005 0.000133758 9.12925e-005 0.000194412 0.000135653 0.000221735 0.000147704 0.000326266 0.000222453 9.12925e-005 6.20979e-005 0.000135653 9.19524e-005 0.000147704 9.67386e-005 0.000222453 0.000145237 0 0 0 0 0 0 6.20979e-005 5.78115e-005 0 0 0 0 0 0 5.78115e-005 0 0 0 0 0 6.20979e-005 5.78115e-005 9.19524e-005 8.19179e-005 0 0 0 0 5.78115e-005 0 8.19179e-005 0 0 0 6.20979e-005 5.78115e-005 0 0 9.67386e-005 8.3499e-005 0 0 5.78115e-005 0 0 0 8.3499e-005 0 6.20979e-005 5.78115e-005 9.19524e-005 8.19179e-005 9.67386e-005 8.3499e-005 0.000145237 0.000118844 5.78115e-005 0 8.19179e-005 0 8.3499e-005 0 0.000118844 0 0 0 0 0 0.000194412 0.000135653 0.000189242 0.000139809 0 0 0 0 0.000135653 9.19524e-005 0.000139809 9.76491e-005 0 0 0 0 0.000189242 0.000139809 0.000143922 0.000118151 0 0 0 0 0.000139809 9.76491e-005 0.000118151 8.77634e-005 0.000194412 0.000135653 0.000189242 0.000139809 0.000326266 0.000222453 0.000320493 0.000230936 0.000135653 9.19524e-005 0.000139809 9.76491e-005 0.000222453 0.000145237 0.000230936 0.000154847 0.000189242 0.000139809 0.000143922 0.000118151 0.000320493 0.000230936 0.000246177 0.000196015 0.000139809 9.76491e-005 0.000118151 8.77634e-005 0.000230936 0.000154847 0.000196015 0.000138948 0 0 0 0 9.19524e-005 8.19179e-005 9.76491e-005 8.94931e-005 0 0 0 0 8.19179e-005 0 8.94931e-005 0 0 0 0 0 9.76491e-005 8.94931e-005 8.77634e-005 8.60669e-005 0 0 0 0 8.94931e-005 0 8.60669e-005 0 9.19524e-005 8.19179e-005 9.76491e-005 8.94931e-005 0.000145237 0.000118844 0.000154847 0.00012959 8.19179e-005 0 8.94931e-005 0 0.000118844 0 0.00012959 0 9.76491e-005 8.94931e-005 8.77634e-005 8.60669e-005 0.000154847 0.00012959 0.000138948 0.000123967 8.94931e-005 0 8.60669e-005 0 0.00012959 0 0.000123967 0 0 0 0.000221735 0.000147704 0 0 0.000274702 0.000179694 0 0 0.000147704 9.67386e-005 0 0 0.000179694 0.000115037 0.000221735 0.000147704 0.000326266 0.000222453 0.000274702 0.000179694 0.000406196 0.000272251 0.000147704 9.67386e-005 0.000222453 0.000145237 0.000179694 0.000115037 0.000272251 0.000173848 0 0 0.000274702 0.000179694 0 0 0.000292601 0.000190194 0 0 0.000179694 0.000115037 0 0 0.000190194 0.000120848 0.000274702 0.000179694 0.000406196 0.000272251 0.000292601 0.000190194 0.000433237 0.000288659 0.000179694 0.000115037 0.000272251 0.000173848 0.000190194 0.000120848 0.000288659 0.000183005 0 0 9.67386e-005 8.3499e-005 0 0 0.000115037 9.65021e-005 0 0 8.3499e-005 0 0 0 9.65021e-005 0 9.67386e-005 8.3499e-005 0.000145237 0.000118844 0.000115037 9.65021e-005 0.000173848 0.000137752 8.3499e-005 0 0.000118844 0 9.65021e-005 0 0.000137752 0 0 0 0.000115037 9.65021e-005 0 0 0.000120848 0.000100539 0 0 9.65021e-005 0 0 0 0.000100539 0 0.000115037 9.65021e-005 0.000173848 0.000137752 0.000120848 0.000100539 0.000183005 0.000143676 9.65021e-005 0 0.000137752 0 0.000100539 0 0.000143676 0 0.000326266 0.000222453 0.000320493 0.000230936 0.000406196 0.000272251 0.00040036 0.000283333 0.000222453 0.000145237 0.000230936 0.000154847 0.000272251 0.000173848 0.000283333 0.000185558 0.000320493 0.000230936 0.000246177 0.000196015 0.00040036 0.000283333 0.000308625 0.000240661 0.000230936 0.000154847 0.000196015 0.000138948 0.000283333 0.000185558 0.000240661 0.000166222 0.000406196 0.000272251 0.00040036 0.000283333 0.000433237 0.000288659 0.000427395 0.000300611 0.000272251 0.000173848 0.000283333 0.000185558 0.000288659 0.000183005 0.000300611 0.000195401 0.00040036 0.000283333 0.000308625 0.000240661 0.000427395 0.000300611 0.00032975 0.000255345 0.000283333 0.000185558 0.000240661 0.000166222 0.000300611 0.000195401 0.000255345 0.000174926 0.000145237 0.000118844 0.000154847 0.00012959 0.000173848 0.000137752 0.000185558 0.000149983 0.000118844 0 0.00012959 0 0.000137752 0 0.000149983 0 0.000154847 0.00012959 0.000138948 0.000123967 0.000185558 0.000149983 0.000166222 0.000143063 0.00012959 0 0.000123967 0 0.000149983 0 0.000143063 0 0.000173848 0.000137752 0.000185558 0.000149983 0.000183005 0.000143676 0.000195401 0.000156385 0.000137752 0 0.000149983 0 0.000143676 0 0.000156385 0 0.000185558 0.000149983 0.000166222 0.000143063 0.000195401 0.000156385 0.000174926 0.000149034 0.000149983 0 0.000143063 0 0.000156385 0 0.000149034 0 0 0 0 0 0 0.000107924 0 -2.25646e-006 0 0 0 0 0.000107924 0.000171268 -2.25646e-006 5.49342e-005 0 0 0 0 0 -2.25646e-006 0 -3.04806e-005 0 0 0 0 -2.25646e-006 5.49342e-005 -3.04806e-005 6.15806e-006 0 0.000107924 0 -2.25646e-006 0 0.000242675 0 3.39464e-005 0.000107924 0.000171268 -2.25646e-006 5.49342e-005 0.000242675 0.000318153 3.39464e-005 0.000114747 0 -2.25646e-006 0 -3.04806e-005 0 3.39464e-005 0 -2.70635e-005 -2.25646e-006 5.49342e-005 -3.04806e-005 6.15806e-006 3.39464e-005 0.000114747 -2.70635e-005 2.55857e-005 0 0 0 0 0.000171268 0.000164796 5.49342e-005 8.43223e-005 0 0 0 0 0.000164796 0.000143922 8.43223e-005 9.16402e-005 0 0 0 0 5.49342e-005 8.43223e-005 6.15806e-006 3.25585e-005 0 0 0 0 8.43223e-005 9.16402e-005 3.25585e-005 5.03428e-005 0.000171268 0.000164796 5.49342e-005 8.43223e-005 0.000318153 0.000292417 0.000114747 0.000155124 0.000164796 0.000143922 8.43223e-005 9.16402e-005 0.000292417 0.000246177 0.000155124 0.000158642 5.49342e-005 8.43223e-005 6.15806e-006 3.25585e-005 0.000114747 0.000155124 2.55857e-005 6.45169e-005 8.43223e-005 9.16402e-005 3.25585e-005 5.03428e-005 0.000155124 0.000158642 6.45169e-005 8.8208e-005 0 0 0 0 0 -3.04806e-005 0 -3.08601e-005 0 0 0 0 -3.04806e-005 6.15806e-006 -3.08601e-005 -9.26128e-006 0 0 0 0 0 -3.08601e-005 0 0 0 0 0 0 -3.08601e-005 -9.26128e-006 0 0 0 -3.04806e-005 0 -3.08601e-005 0 -2.70635e-005 0 -3.7631e-005 -3.04806e-005 6.15806e-006 -3.08601e-005 -9.26128e-006 -2.70635e-005 2.55857e-005 -3.7631e-005 -6.79904e-006 0 -3.08601e-005 0 0 0 -3.7631e-005 0 0 -3.08601e-005 -9.26128e-006 0 0 -3.7631e-005 -6.79904e-006 0 0 0 0 0 0 6.15806e-006 3.25585e-005 -9.26128e-006 7.32529e-006 0 0 0 0 3.25585e-005 5.03428e-005 7.32529e-006 2.21821e-005 0 0 0 0 -9.26128e-006 7.32529e-006 0 0 0 0 0 0 7.32529e-006 2.21821e-005 0 0 6.15806e-006 3.25585e-005 -9.26128e-006 7.32529e-006 2.55857e-005 6.45169e-005 -6.79904e-006 1.78595e-005 3.25585e-005 5.03428e-005 7.32529e-006 2.21821e-005 6.45169e-005 8.8208e-005 1.78595e-005 3.90894e-005 -9.26128e-006 7.32529e-006 0 0 -6.79904e-006 1.78595e-005 0 0 7.32529e-006 2.21821e-005 0 0 1.78595e-005 3.90894e-005 0 0 0 0.000242675 0 3.39464e-005 0 0.000332723 0 6.26175e-005 0.000242675 0.000318153 3.39464e-005 0.000114747 0.000332723 0.000413903 6.26175e-005 0.000155797 0 3.39464e-005 0 -2.70635e-005 0 6.26175e-005 0 -2.03204e-005 3.39464e-005 0.000114747 -2.70635e-005 2.55857e-005 6.26175e-005 0.000155797 -2.03204e-005 4.08482e-005 0 0.000332723 0 6.26175e-005 0 0.000363712 0 7.29313e-005 0.000332723 0.000413903 6.26175e-005 0.000155797 0.000363712 0.000446865 7.29313e-005 0.00017015 0 6.26175e-005 0 -2.03204e-005 0 7.29313e-005 0 -1.75224e-005 6.26175e-005 0.000155797 -2.03204e-005 4.08482e-005 7.29313e-005 0.00017015 -1.75224e-005 4.63614e-005 0.000318153 0.000292417 0.000114747 0.000155124 0.000413903 0.00037446 0.000155797 0.000201603 0.000292417 0.000246177 0.000155124 0.000158642 0.00037446 0.000308625 0.000201603 0.00019975 0.000114747 0.000155124 2.55857e-005 6.45169e-005 0.000155797 0.000201603 4.08482e-005 8.64802e-005 0.000155124 0.000158642 6.45169e-005 8.8208e-005 0.000201603 0.00019975 8.64802e-005 0.000111576 0.000413903 0.00037446 0.000155797 0.000201603 0.000446865 0.000402693 0.00017015 0.000217685 0.00037446 0.000308625 0.000201603 0.00019975 0.000402693 0.00032975 0.000217685 0.000213646 0.000155797 0.000201603 4.08482e-005 8.64802e-005 0.00017015 0.000217685 4.63614e-005 9.41713e-005 0.000201603 0.00019975 8.64802e-005 0.000111576 0.000217685 0.000213646 9.41713e-005 0.00011947 0 -2.70635e-005 0 -3.7631e-005 0 -2.03204e-005 0 -3.89863e-005 -2.70635e-005 2.55857e-005 -3.7631e-005 -6.79904e-006 -2.03204e-005 4.08482e-005 -3.89863e-005 -3.25402e-006 0 -3.7631e-005 0 0 0 -3.89863e-005 0 0 -3.7631e-005 -6.79904e-006 0 0 -3.89863e-005 -3.25402e-006 0 0 0 -2.03204e-005 0 -3.89863e-005 0 -1.75224e-005 0 -3.9092e-005 -2.03204e-005 4.08482e-005 -3.89863e-005 -3.25402e-006 -1.75224e-005 4.63614e-005 -3.9092e-005 -1.83199e-006 0 -3.89863e-005 0 0 0 -3.9092e-005 0 0 -3.89863e-005 -3.25402e-006 0 0 -3.9092e-005 -1.83199e-006 0 0 2.55857e-005 6.45169e-005 -6.79904e-006 1.78595e-005 4.08482e-005 8.64802e-005 -3.25402e-006 2.57282e-005 6.45169e-005 8.8208e-005 1.78595e-005 3.90894e-005 8.64802e-005 0.000111576 2.57282e-005 4.95452e-005 -6.79904e-006 1.78595e-005 0 0 -3.25402e-006 2.57282e-005 0 0 1.78595e-005 3.90894e-005 0 0 2.57282e-005 4.95452e-005 0 0 4.08482e-005 8.64802e-005 -3.25402e-006 2.57282e-005 4.63614e-005 9.41713e-005 -1.83199e-006 2.85415e-005 8.64802e-005 0.000111576 2.57282e-005 4.95452e-005 9.41713e-005 0.00011947 2.85415e-005 5.30677e-005 -3.25402e-006 2.57282e-005 0 0 -1.83199e-006 2.85415e-005 0 0 2.57282e-005 4.95452e-005 0 0 2.85415e-005 5.30677e-005 0 0 0 0 0 0 0.000143922 0.000118151 9.16402e-005 8.69182e-005 0 0 0 0 0.000118151 8.77634e-005 8.69182e-005 7.09916e-005 0 0 0 0 9.16402e-005 8.69182e-005 5.03428e-005 5.73756e-005 0 0 0 0 8.69182e-005 7.09916e-005 5.73756e-005 5.27192e-005 0.000143922 0.000118151 9.16402e-005 8.69182e-005 0.000246177 0.000196015 0.000158642 0.000144304 0.000118151 8.77634e-005 8.69182e-005 7.09916e-005 0.000196015 0.000138948 0.000144304 0.000111644 9.16402e-005 8.69182e-005 5.03428e-005 5.73756e-005 0.000158642 0.000144304 8.8208e-005 9.47715e-005 8.69182e-005 7.09916e-005 5.73756e-005 5.27192e-005 0.000144304 0.000111644 9.47715e-005 8.19668e-005 0 0 0 0 8.77634e-005 8.60669e-005 7.09916e-005 7.61728e-005 0 0 0 0 8.60669e-005 0 7.61728e-005 0 0 0 0 0 7.09916e-005 7.61728e-005 5.27192e-005 6.23723e-005 0 0 0 0 7.61728e-005 0 6.23723e-005 0 8.77634e-005 8.60669e-005 7.09916e-005 7.61728e-005 0.000138948 0.000123967 0.000111644 0.000108931 8.60669e-005 0 7.61728e-005 0 0.000123967 0 0.000108931 0 7.09916e-005 7.61728e-005 5.27192e-005 6.23723e-005 0.000111644 0.000108931 8.19668e-005 8.87019e-005 7.61728e-005 0 6.23723e-005 0 0.000108931 0 8.87019e-005 0 0 0 0 0 5.03428e-005 5.73756e-005 2.21821e-005 3.10394e-005 0 0 0 0 5.73756e-005 5.27192e-005 3.10394e-005 3.23859e-005 0 0 0 0 2.21821e-005 3.10394e-005 0 0 0 0 0 0 3.10394e-005 3.23859e-005 0 0 5.03428e-005 5.73756e-005 2.21821e-005 3.10394e-005 8.8208e-005 9.47715e-005 3.90894e-005 5.05582e-005 5.73756e-005 5.27192e-005 3.10394e-005 3.23859e-005 9.47715e-005 8.19668e-005 5.05582e-005 4.95185e-005 2.21821e-005 3.10394e-005 0 0 3.90894e-005 5.05582e-005 0 0 3.10394e-005 3.23859e-005 0 0 5.05582e-005 4.95185e-005 0 0 0 0 0 0 5.27192e-005 6.23723e-005 3.23859e-005 4.29767e-005 0 0 0 0 6.23723e-005 0 4.29767e-005 0 0 0 0 0 3.23859e-005 4.29767e-005 0 0 0 0 0 0 4.29767e-005 0 0 0 5.27192e-005 6.23723e-005 3.23859e-005 4.29767e-005 8.19668e-005 8.87019e-005 4.95185e-005 6.10705e-005 6.23723e-005 0 4.29767e-005 0 8.87019e-005 0 6.10705e-005 0 3.23859e-005 4.29767e-005 0 0 4.95185e-005 6.10705e-005 0 0 4.29767e-005 0 0 0 6.10705e-005 0 0 0 0.000246177 0.000196015 0.000158642 0.000144304 0.000308625 0.000240661 0.00019975 0.000176972 0.000196015 0.000138948 0.000144304 0.000111644 0.000240661 0.000166222 0.000176972 0.000133027 0.000158642 0.000144304 8.8208e-005 9.47715e-005 0.00019975 0.000176972 0.000111576 0.000115827 0.000144304 0.000111644 9.47715e-005 8.19668e-005 0.000176972 0.000133027 0.000115827 9.71467e-005 0.000308625 0.000240661 0.00019975 0.000176972 0.00032975 0.000255345 0.000213646 0.00018767 0.000240661 0.000166222 0.000176972 0.000133027 0.000255345 0.000174926 0.00018767 0.000139813 0.00019975 0.000176972 0.000111576 0.000115827 0.000213646 0.00018767 0.00011947 0.000122678 0.000176972 0.000133027 0.000115827 9.71467e-005 0.00018767 0.000139813 0.000122678 0.000101927 0.000138948 0.000123967 0.000111644 0.000108931 0.000166222 0.000143063 0.000133027 0.000125308 0.000123967 0 0.000108931 0 0.000143063 0 0.000125308 0 0.000111644 0.000108931 8.19668e-005 8.87019e-005 0.000133027 0.000125308 9.71467e-005 0.000101908 0.000108931 0 8.87019e-005 0 0.000125308 0 0.000101908 0 0.000166222 0.000143063 0.000133027 0.000125308 0.000174926 0.000149034 0.000139813 0.000130419 0.000143063 0 0.000125308 0 0.000149034 0 0.000130419 0 0.000133027 0.000125308 9.71467e-005 0.000101908 0.000139813 0.000130419 0.000101927 0.000106019 0.000125308 0 0.000101908 0 0.000130419 0 0.000106019 0 8.8208e-005 9.47715e-005 3.90894e-005 5.05582e-005 0.000111576 0.000115827 4.95452e-005 6.13632e-005 9.47715e-005 8.19668e-005 5.05582e-005 4.95185e-005 0.000115827 9.71467e-005 6.13632e-005 5.82804e-005 3.90894e-005 5.05582e-005 0 0 4.95452e-005 6.13632e-005 0 0 5.05582e-005 4.95185e-005 0 0 6.13632e-005 5.82804e-005 0 0 0.000111576 0.000115827 4.95452e-005 6.13632e-005 0.00011947 0.000122678 5.30677e-005 6.48445e-005 0.000115827 9.71467e-005 6.13632e-005 5.82804e-005 0.000122678 0.000101927 6.48445e-005 6.10132e-005 4.95452e-005 6.13632e-005 0 0 5.30677e-005 6.48445e-005 0 0 6.13632e-005 5.82804e-005 0 0 6.48445e-005 6.10132e-005 0 0 8.19668e-005 8.87019e-005 4.95185e-005 6.10705e-005 9.71467e-005 0.000101908 5.82804e-005 7.01934e-005 8.87019e-005 0 6.10705e-005 0 0.000101908 0 7.01934e-005 0 4.95185e-005 6.10705e-005 0 0 5.82804e-005 7.01934e-005 0 0 6.10705e-005 0 0 0 7.01934e-005 0 0 0 9.71467e-005 0.000101908 5.82804e-005 7.01934e-005 0.000101927 0.000106019 6.10132e-005 7.30264e-005 0.000101908 0 7.01934e-005 0 0.000106019 0 7.30264e-005 0 5.82804e-005 7.01934e-005 0 0 6.10132e-005 7.30264e-005 0 0 7.01934e-005 0 0 0 7.30264e-005 0 0 0 0 0 0.001875 0.000772599 0 0 0.00175781 0.000716402 0 0 0.000772599 0.000713134 0 0 0.000716402 0.000664528 0.001875 0.000772599 0.0025 0.00114204 0.00175781 0.000716402 0.00234375 0.00105956 0.000772599 0.000713134 0.00114204 0.00100467 0.000716402 0.000664528 0.00105956 0.000935773 0 0 0.00175781 0.000716402 0 0 0.00140625 0.000549919 0 0 0.000716402 0.000664528 0 0 0.000549919 0.000521853 0.00175781 0.000716402 0.00234375 0.00105956 0.00140625 0.000549919 0.001875 0.000815268 0.000716402 0.000664528 0.00105956 0.000935773 0.000549919 0.000521853 0.000815268 0.00073354 0 0 0.000713134 0.000429181 0 0 0.000664528 0.000400704 0 0 0.000429181 0.000292601 0 0 0.000400704 0.000274702 0.000713134 0.000429181 0.00100467 0.000620668 0.000664528 0.000400704 0.000935773 0.00057893 0.000429181 0.000292601 0.000620668 0.000433237 0.000400704 0.000274702 0.00057893 0.000406196 0 0 0.000664528 0.000400704 0 0 0.000521853 0.000317702 0 0 0.000400704 0.000274702 0 0 0.000317702 0.000221735 0.000664528 0.000400704 0.000935773 0.00057893 0.000521853 0.000317702 0.00073354 0.000457273 0.000400704 0.000274702 0.00057893 0.000406196 0.000317702 0.000221735 0.000457273 0.000326266 0.0025 0.00114204 0.001875 0.000911914 0.00234375 0.00105956 0.00175781 0.000844198 0