# vtk DataFile Version 3.0
#This file was generated by the deal.II library on 2015/5/8 at 18:26:48
ASCII
DATASET UNSTRUCTURED_GRID

POINTS 64 double
0 0 0
0.25 0 0
0 0.25 0
0.25 0.25 0
0.25 0 0
0.5 0 0
0.25 0.25 0
0.5 0.25 0
0 0.25 0
0.25 0.25 0
0 0.5 0
0.25 0.5 0
0.25 0.25 0
0.5 0.25 0
0.25 0.5 0
0.5 0.5 0
0.5 0 0
0.75 0 0
0.5 0.25 0
0.75 0.25 0
0.75 0 0
1 0 0
0.75 0.25 0
1 0.25 0
0.5 0.25 0
0.75 0.25 0
0.5 0.5 0
0.75 0.5 0
0.75 0.25 0
1 0.25 0
0.75 0.5 0
1 0.5 0
0 0.5 0
0.25 0.5 0
0 0.75 0
0.25 0.75 0
0.25 0.5 0
0.5 0.5 0
0.25 0.75 0
0.5 0.75 0
0 0.75 0
0.25 0.75 0
0 1 0
0.25 1 0
0.25 0.75 0
0.5 0.75 0
0.25 1 0
0.5 1 0
0.5 0.5 0
0.75 0.5 0
0.5 0.75 0
0.75 0.75 0
0.75 0.5 0
1 0.5 0
0.75 0.75 0
1 0.75 0
0.5 0.75 0
0.75 0.75 0
0.5 1 0
0.75 1 0
0.75 0.75 0
1 0.75 0
0.75 1 0
1 1 0

CELLS 16 80
4	0	1	3	2
4	4	5	7	6
4	8	9	11	10
4	12	13	15	14
4	16	17	19	18
4	20	21	23	22
4	24	25	27	26
4	28	29	31	30
4	32	33	35	34
4	36	37	39	38
4	40	41	43	42
4	44	45	47	46
4	48	49	51	50
4	52	53	55	54
4	56	57	59	58
4	60	61	63	62

CELL_TYPES 16
 9 9 9 9 9 9 9 9 9 9 9 9 9 9 9 9
POINT_DATA 64
SCALARS solution double 1
LOOKUP_TABLE default
0 1 1 0.433823 1 1.22465e-016 0.433823 0.0865902 1 0.433823 1.22465e-016 0.0865902 0.433823 0.0865902 0.0865902 5.50667e-017 1.22465e-016 -1 0.0865902 8.7752e-017 -1 -2.44929e-016 8.7752e-017 1 0.0865902 8.7752e-017 5.50667e-017 -0.0865902 8.7752e-017 1 -0.0865902 3.67394e-016 1.22465e-016 0.0865902 -1 8.61034e-017 0.0865902 5.50667e-017 8.61034e-017 -0.0865902 -1 8.61034e-017 -2.44929e-016 1 8.61034e-017 -0.0865902 1 3.67394e-016 5.50667e-017 -0.0865902 -0.0865902 -0.433823 -0.0865902 3.67394e-016 -0.433823 -1 -0.0865902 -0.433823 3.67394e-016 -1 -0.433823 -1 -1 -4.89859e-016 
SCALARS update double 1
LOOKUP_TABLE default
0 0 0 6.05905e-017 0 0 6.05905e-017 1.35471e-018 0 6.05905e-017 0 -3.82103e-017 6.05905e-017 1.35471e-018 -3.82103e-017 5.2301e-018 0 0 1.35471e-018 -1.16497e-017 0 0 -1.16497e-017 0 1.35471e-018 -1.16497e-017 5.2301e-018 -1.11937e-017 -1.16497e-017 0 -1.11937e-017 0 0 -3.82103e-017 0 -8.58133e-019 -3.82103e-017 5.2301e-018 -8.58133e-019 -4.0148e-017 0 -8.58133e-019 0 0 -8.58133e-019 -4.0148e-017 0 0 5.2301e-018 -1.11937e-017 -4.0148e-017 -2.64814e-018 -1.11937e-017 0 -2.64814e-018 0 -4.0148e-017 -2.64814e-018 0 0 -2.64814e-018 0 0 0 
