# vtk DataFile Version 3.0
#This file was generated by the deal.II library on 2015/6/18 at 12: 9:31
ASCII
DATASET UNSTRUCTURED_GRID

POINTS 4096 double
0 0 0
0.125 0 0
0 0.125 0
0.125 0.125 0
0 0 0.125
0.125 0 0.125
0 0.125 0.125
0.125 0.125 0.125
0.125 0 0
0.25 0 0
0.125 0.125 0
0.25 0.125 0
0.125 0 0.125
0.25 0 0.125
0.125 0.125 0.125
0.25 0.125 0.125
0.25 0 0
0.375 0 0
0.25 0.125 0
0.375 0.125 0
0.25 0 0.125
0.375 0 0.125
0.25 0.125 0.125
0.375 0.125 0.125
0.375 0 0
0.5 0 0
0.375 0.125 0
0.5 0.125 0
0.375 0 0.125
0.5 0 0.125
0.375 0.125 0.125
0.5 0.125 0.125
0.5 0 0
0.625 0 0
0.5 0.125 0
0.625 0.125 0
0.5 0 0.125
0.625 0 0.125
0.5 0.125 0.125
0.625 0.125 0.125
0.625 0 0
0.75 0 0
0.625 0.125 0
0.75 0.125 0
0.625 0 0.125
0.75 0 0.125
0.625 0.125 0.125
0.75 0.125 0.125
0.75 0 0
0.875 0 0
0.75 0.125 0
0.875 0.125 0
0.75 0 0.125
0.875 0 0.125
0.75 0.125 0.125
0.875 0.125 0.125
0.875 0 0
1 0 0
0.875 0.125 0
1 0.125 0
0.875 0 0.125
1 0 0.125
0.875 0.125 0.125
1 0.125 0.125
0 0.125 0
0.125 0.125 0
0 0.25 0
0.125 0.25 0
0 0.125 0.125
0.125 0.125 0.125
0 0.25 0.125
0.125 0.25 0.125
0.125 0.125 0
0.25 0.125 0
0.125 0.25 0
0.25 0.25 0
0.125 0.125 0.125
0.25 0.125 0.125
0.125 0.25 0.125
0.25 0.25 0.125
0.25 0.125 0
0.375 0.125 0
0.25 0.25 0
0.375 0.25 0
0.25 0.125 0.125
0.375 0.125 0.125
0.25 0.25 0.125
0.375 0.25 0.125
0.375 0.125 0
0.5 0.125 0
0.375 0.25 0
0.5 0.25 0
0.375 0.125 0.125
0.5 0.125 0.125
0.375 0.25 0.125
0.5 0.25 0.125
0.5 0.125 0
0.625 0.125 0
0.5 0.25 0
0.625 0.25 0
0.5 0.125 0.125
0.625 0.125 0.125
0.5 0.25 0.125
0.625 0.25 0.125
0.625 0.125 0
0.75 0.125 0
0.625 0.25 0
0.75 0.25 0
0.625 0.125 0.125
0.75 0.125 0.125
0.625 0.25 0.125
0.75 0.25 0.125
0.75 0.125 0
0.875 0.125 0
0.75 0.25 0
0.875 0.25 0
0.75 0.125 0.125
0.875 0.125 0.125
0.75 0.25 0.125
0.875 0.25 0.125
0.875 0.125 0
1 0.125 0
0.875 0.25 0
1 0.25 0
0.875 0.125 0.125
1 0.125 0.125
0.875 0.25 0.125
1 0.25 0.125
0 0.25 0
0.125 0.25 0
0 0.375 0
0.125 0.375 0
0 0.25 0.125
0.125 0.25 0.125
0 0.375 0.125
0.125 0.375 0.125
0.125 0.25 0
0.25 0.25 0
0.125 0.375 0
0.25 0.375 0
0.125 0.25 0.125
0.25 0.25 0.125
0.125 0.375 0.125
0.25 0.375 0.125
0.25 0.25 0
0.375 0.25 0
0.25 0.375 0
0.375 0.375 0
0.25 0.25 0.125
0.375 0.25 0.125
0.25 0.375 0.125
0.375 0.375 0.125
0.375 0.25 0
0.5 0.25 0
0.375 0.375 0
0.5 0.375 0
0.375 0.25 0.125
0.5 0.25 0.125
0.375 0.375 0.125
0.5 0.375 0.125
0.5 0.25 0
0.625 0.25 0
0.5 0.375 0
0.625 0.375 0
0.5 0.25 0.125
0.625 0.25 0.125
0.5 0.375 0.125
0.625 0.375 0.125
0.625 0.25 0
0.75 0.25 0
0.625 0.375 0
0.75 0.375 0
0.625 0.25 0.125
0.75 0.25 0.125
0.625 0.375 0.125
0.75 0.375 0.125
0.75 0.25 0
0.875 0.25 0
0.75 0.375 0
0.875 0.375 0
0.75 0.25 0.125
0.875 0.25 0.125
0.75 0.375 0.125
0.875 0.375 0.125
0.875 0.25 0
1 0.25 0
0.875 0.375 0
1 0.375 0
0.875 0.25 0.125
1 0.25 0.125
0.875 0.375 0.125
1 0.375 0.125
0 0.375 0
0.125 0.375 0
0 0.5 0
0.125 0.5 0
0 0.375 0.125
0.125 0.375 0.125
0 0.5 0.125
0.125 0.5 0.125
0.125 0.375 0
0.25 0.375 0
0.125 0.5 0
0.25 0.5 0
0.125 0.375 0.125
0.25 0.375 0.125
0.125 0.5 0.125
0.25 0.5 0.125
0.25 0.375 0
0.375 0.375 0
0.25 0.5 0
0.375 0.5 0
0.25 0.375 0.125
0.375 0.375 0.125
0.25 0.5 0.125
0.375 0.5 0.125
0.375 0.375 0
0.5 0.375 0
0.375 0.5 0
0.5 0.5 0
0.375 0.375 0.125
0.5 0.375 0.125
0.375 0.5 0.125
0.5 0.5 0.125
0.5 0.375 0
0.625 0.375 0
0.5 0.5 0
0.625 0.5 0
0.5 0.375 0.125
0.625 0.375 0.125
0.5 0.5 0.125
0.625 0.5 0.125
0.625 0.375 0
0.75 0.375 0
0.625 0.5 0
0.75 0.5 0
0.625 0.375 0.125
0.75 0.375 0.125
0.625 0.5 0.125
0.75 0.5 0.125
0.75 0.375 0
0.875 0.375 0
0.75 0.5 0
0.875 0.5 0
0.75 0.375 0.125
0.875 0.375 0.125
0.75 0.5 0.125
0.875 0.5 0.125
0.875 0.375 0
1 0.375 0
0.875 0.5 0
1 0.5 0
0.875 0.375 0.125
1 0.375 0.125
0.875 0.5 0.125
1 0.5 0.125
0 0.5 0
0.125 0.5 0
0 0.625 0
0.125 0.625 0
0 0.5 0.125
0.125 0.5 0.125
0 0.625 0.125
0.125 0.625 0.125
0.125 0.5 0
0.25 0.5 0
0.125 0.625 0
0.25 0.625 0
0.125 0.5 0.125
0.25 0.5 0.125
0.125 0.625 0.125
0.25 0.625 0.125
0.25 0.5 0
0.375 0.5 0
0.25 0.625 0
0.375 0.625 0
0.25 0.5 0.125
0.375 0.5 0.125
0.25 0.625 0.125
0.375 0.625 0.125
0.375 0.5 0
0.5 0.5 0
0.375 0.625 0
0.5 0.625 0
0.375 0.5 0.125
0.5 0.5 0.125
0.375 0.625 0.125
0.5 0.625 0.125
0.5 0.5 0
0.625 0.5 0
0.5 0.625 0
0.625 0.625 0
0.5 0.5 0.125
0.625 0.5 0.125
0.5 0.625 0.125
0.625 0.625 0.125
0.625 0.5 0
0.75 0.5 0
0.625 0.625 0
0.75 0.625 0
0.625 0.5 0.125
0.75 0.5 0.125
0.625 0.625 0.125
0.75 0.625 0.125
0.75 0.5 0
0.875 0.5 0
0.75 0.625 0
0.875 0.625 0
0.75 0.5 0.125
0.875 0.5 0.125
0.75 0.625 0.125
0.875 0.625 0.125
0.875 0.5 0
1 0.5 0
0.875 0.625 0
1 0.625 0
0.875 0.5 0.125
1 0.5 0.125
0.875 0.625 0.125
1 0.625 0.125
0 0.625 0
0.125 0.625 0
0 0.75 0
0.125 0.75 0
0 0.625 0.125
0.125 0.625 0.125
0 0.75 0.125
0.125 0.75 0.125
0.125 0.625 0
0.25 0.625 0
0.125 0.75 0
0.25 0.75 0
0.125 0.625 0.125
0.25 0.625 0.125
0.125 0.75 0.125
0.25 0.75 0.125
0.25 0.625 0
0.375 0.625 0
0.25 0.75 0
0.375 0.75 0
0.25 0.625 0.125
0.375 0.625 0.125
0.25 0.75 0.125
0.375 0.75 0.125
0.375 0.625 0
0.5 0.625 0
0.375 0.75 0
0.5 0.75 0
0.375 0.625 0.125
0.5 0.625 0.125
0.375 0.75 0.125
0.5 0.75 0.125
0.5 0.625 0
0.625 0.625 0
0.5 0.75 0
0.625 0.75 0
0.5 0.625 0.125
0.625 0.625 0.125
0.5 0.75 0.125
0.625 0.75 0.125
0.625 0.625 0
0.75 0.625 0
0.625 0.75 0
0.75 0.75 0
0.625 0.625 0.125
0.75 0.625 0.125
0.625 0.75 0.125
0.75 0.75 0.125
0.75 0.625 0
0.875 0.625 0
0.75 0.75 0
0.875 0.75 0
0.75 0.625 0.125
0.875 0.625 0.125
0.75 0.75 0.125
0.875 0.75 0.125
0.875 0.625 0
1 0.625 0
0.875 0.75 0
1 0.75 0
0.875 0.625 0.125
1 0.625 0.125
0.875 0.75 0.125
1 0.75 0.125
0 0.75 0
0.125 0.75 0
0 0.875 0
0.125 0.875 0
0 0.75 0.125
0.125 0.75 0.125
0 0.875 0.125
0.125 0.875 0.125
0.125 0.75 0
0.25 0.75 0
0.125 0.875 0
0.25 0.875 0
0.125 0.75 0.125
0.25 0.75 0.125
0.125 0.875 0.125
0.25 0.875 0.125
0.25 0.75 0
0.375 0.75 0
0.25 0.875 0
0.375 0.875 0
0.25 0.75 0.125
0.375 0.75 0.125
0.25 0.875 0.125
0.375 0.875 0.125
0.375 0.75 0
0.5 0.75 0
0.375 0.875 0
0.5 0.875 0
0.375 0.75 0.125
0.5 0.75 0.125
0.375 0.875 0.125
0.5 0.875 0.125
0.5 0.75 0
0.625 0.75 0
0.5 0.875 0
0.625 0.875 0
0.5 0.75 0.125
0.625 0.75 0.125
0.5 0.875 0.125
0.625 0.875 0.125
0.625 0.75 0
0.75 0.75 0
0.625 0.875 0
0.75 0.875 0
0.625 0.75 0.125
0.75 0.75 0.125
0.625 0.875 0.125
0.75 0.875 0.125
0.75 0.75 0
0.875 0.75 0
0.75 0.875 0
0.875 0.875 0
0.75 0.75 0.125
0.875 0.75 0.125
0.75 0.875 0.125
0.875 0.875 0.125
0.875 0.75 0
1 0.75 0
0.875 0.875 0
1 0.875 0
0.875 0.75 0.125
1 0.75 0.125
0.875 0.875 0.125
1 0.875 0.125
0 0.875 0
0.125 0.875 0
0 1 0
0.125 1 0
0 0.875 0.125
0.125 0.875 0.125
0 1 0.125
0.125 1 0.125
0.125 0.875 0
0.25 0.875 0
0.125 1 0
0.25 1 0
0.125 0.875 0.125
0.25 0.875 0.125
0.125 1 0.125
0.25 1 0.125
0.25 0.875 0
0.375 0.875 0
0.25 1 0
0.375 1 0
0.25 0.875 0.125
0.375 0.875 0.125
0.25 1 0.125
0.375 1 0.125
0.375 0.875 0
0.5 0.875 0
0.375 1 0
0.5 1 0
0.375 0.875 0.125
0.5 0.875 0.125
0.375 1 0.125
0.5 1 0.125
0.5 0.875 0
0.625 0.875 0
0.5 1 0
0.625 1 0
0.5 0.875 0.125
0.625 0.875 0.125
0.5 1 0.125
0.625 1 0.125
0.625 0.875 0
0.75 0.875 0
0.625 1 0
0.75 1 0
0.625 0.875 0.125
0.75 0.875 0.125
0.625 1 0.125
0.75 1 0.125
0.75 0.875 0
0.875 0.875 0
0.75 1 0
0.875 1 0
0.75 0.875 0.125
0.875 0.875 0.125
0.75 1 0.125
0.875 1 0.125
0.875 0.875 0
1 0.875 0
0.875 1 0
1 1 0
0.875 0.875 0.125
1 0.875 0.125
0.875 1 0.125
1 1 0.125
0 0 0.125
0.125 0 0.125
0 0.125 0.125
0.125 0.125 0.125
0 0 0.25
0.125 0 0.25
0 0.125 0.25
0.125 0.125 0.25
0.125 0 0.125
0.25 0 0.125
0.125 0.125 0.125
0.25 0.125 0.125
0.125 0 0.25
0.25 0 0.25
0.125 0.125 0.25
0.25 0.125 0.25
0.25 0 0.125
0.375 0 0.125
0.25 0.125 0.125
0.375 0.125 0.125
0.25 0 0.25
0.375 0 0.25
0.25 0.125 0.25
0.375 0.125 0.25
0.375 0 0.125
0.5 0 0.125
0.375 0.125 0.125
0.5 0.125 0.125
0.375 0 0.25
0.5 0 0.25
0.375 0.125 0.25
0.5 0.125 0.25
0.5 0 0.125
0.625 0 0.125
0.5 0.125 0.125
0.625 0.125 0.125
0.5 0 0.25
0.625 0 0.25
0.5 0.125 0.25
0.625 0.125 0.25
0.625 0 0.125
0.75 0 0.125
0.625 0.125 0.125
0.75 0.125 0.125
0.625 0 0.25
0.75 0 0.25
0.625 0.125 0.25
0.75 0.125 0.25
0.75 0 0.125
0.875 0 0.125
0.75 0.125 0.125
0.875 0.125 0.125
0.75 0 0.25
0.875 0 0.25
0.75 0.125 0.25
0.875 0.125 0.25
0.875 0 0.125
1 0 0.125
0.875 0.125 0.125
1 0.125 0.125
0.875 0 0.25
1 0 0.25
0.875 0.125 0.25
1 0.125 0.25
0 0.125 0.125
0.125 0.125 0.125
0 0.25 0.125
0.125 0.25 0.125
0 0.125 0.25
0.125 0.125 0.25
0 0.25 0.25
0.125 0.25 0.25
0.125 0.125 0.125
0.25 0.125 0.125
0.125 0.25 0.125
0.25 0.25 0.125
0.125 0.125 0.25
0.25 0.125 0.25
0.125 0.25 0.25
0.25 0.25 0.25
0.25 0.125 0.125
0.375 0.125 0.125
0.25 0.25 0.125
0.375 0.25 0.125
0.25 0.125 0.25
0.375 0.125 0.25
0.25 0.25 0.25
0.375 0.25 0.25
0.375 0.125 0.125
0.5 0.125 0.125
0.375 0.25 0.125
0.5 0.25 0.125
0.375 0.125 0.25
0.5 0.125 0.25
0.375 0.25 0.25
0.5 0.25 0.25
0.5 0.125 0.125
0.625 0.125 0.125
0.5 0.25 0.125
0.625 0.25 0.125
0.5 0.125 0.25
0.625 0.125 0.25
0.5 0.25 0.25
0.625 0.25 0.25
0.625 0.125 0.125
0.75 0.125 0.125
0.625 0.25 0.125
0.75 0.25 0.125
0.625 0.125 0.25
0.75 0.125 0.25
0.625 0.25 0.25
0.75 0.25 0.25
0.75 0.125 0.125
0.875 0.125 0.125
0.75 0.25 0.125
0.875 0.25 0.125
0.75 0.125 0.25
0.875 0.125 0.25
0.75 0.25 0.25
0.875 0.25 0.25
0.875 0.125 0.125
1 0.125 0.125
0.875 0.25 0.125
1 0.25 0.125
0.875 0.125 0.25
1 0.125 0.25
0.875 0.25 0.25
1 0.25 0.25
0 0.25 0.125
0.125 0.25 0.125
0 0.375 0.125
0.125 0.375 0.125
0 0.25 0.25
0.125 0.25 0.25
0 0.375 0.25
0.125 0.375 0.25
0.125 0.25 0.125
0.25 0.25 0.125
0.125 0.375 0.125
0.25 0.375 0.125
0.125 0.25 0.25
0.25 0.25 0.25
0.125 0.375 0.25
0.25 0.375 0.25
0.25 0.25 0.125
0.375 0.25 0.125
0.25 0.375 0.125
0.375 0.375 0.125
0.25 0.25 0.25
0.375 0.25 0.25
0.25 0.375 0.25
0.375 0.375 0.25
0.375 0.25 0.125
0.5 0.25 0.125
0.375 0.375 0.125
0.5 0.375 0.125
0.375 0.25 0.25
0.5 0.25 0.25
0.375 0.375 0.25
0.5 0.375 0.25
0.5 0.25 0.125
0.625 0.25 0.125
0.5 0.375 0.125
0.625 0.375 0.125
0.5 0.25 0.25
0.625 0.25 0.25
0.5 0.375 0.25
0.625 0.375 0.25
0.625 0.25 0.125
0.75 0.25 0.125
0.625 0.375 0.125
0.75 0.375 0.125
0.625 0.25 0.25
[...]
POINT_DATA 4096
VECTORS velocity double
0 0 0
0 0 0
0 0 0
0 0 0
0 0 0
-0.00194826 -0.0121254 -0.0442631
0 0 0
-0.00020806 -0.0320711 -0.0125642
0 0 0
0 0 0
0 0 0
0 0 0
-0.00194826 -0.0121254 -0.0442631
7.36212e-05 0.0272179 -0.0431577
-0.00020806 -0.0320711 -0.0125642
5.78952e-05 0.014531 -0.0122538
0 0 0
0 0 0
0 0 0
0 0 0
7.36212e-05 0.0272179 -0.0431577
0.000228347 0.0545319 -0.037555
5.78952e-05 0.014531 -0.0122538
7.67619e-05 0.0438096 -0.0102801
0 0 0
0 0 0
0 0 0
0 0 0
0.000228347 0.0545319 -0.037555
-7.923e-15 0.0657497 -0.0355609
7.67619e-05 0.0438096 -0.0102801
6.88803e-16 0.0553991 -0.00939685
0 0 0
0 0 0
0 0 0
0 0 0
-7.923e-15 0.0657497 -0.0355609
-0.000228347 0.0545319 -0.037555
6.88803e-16 0.0553991 -0.00939685
-7.67619e-05 0.0438096 -0.0102801
0 0 0
0 0 0
0 0 0
0 0 0
-0.000228347 0.0545319 -0.037555
-7.36212e-05 0.0272179 -0.0431577
-7.67619e-05 0.0438096 -0.0102801
-5.78952e-05 0.014531 -0.0122538
0 0 0
0 0 0
0 0 0
0 0 0
-7.36212e-05 0.0272179 -0.0431577
0.00194826 -0.0121254 -0.0442631
-5.78952e-05 0.014531 -0.0122538
0.00020806 -0.0320711 -0.0125642
0 0 0
0 0 0
0 0 0
0 0 0
0.00194826 -0.0121254 -0.0442631
0 0 0
0.00020806 -0.0320711 -0.0125642
0 0 0
0 0 0
0 0 0
0 0 0
0 0 0
0 0 0
-0.00020806 -0.0320711 -0.0125642
0 0 0
-5.01966e-05 -0.0356977 -0.00589181
0 0 0
0 0 0
0 0 0
0 0 0
-0.00020806 -0.0320711 -0.0125642
5.78952e-05 0.014531 -0.0122538
-5.01966e-05 -0.0356977 -0.00589181
7.06859e-05 0.0137066 -0.00593567
0 0 0
0 0 0
0 0 0
0 0 0
5.78952e-05 0.014531 -0.0122538
7.67619e-05 0.0438096 -0.0102801
7.06859e-05 0.0137066 -0.00593567
5.88979e-05 0.0455611 -0.00476042
0 0 0
0 0 0
0 0 0
0 0 0
7.67619e-05 0.0438096 -0.0102801
6.88803e-16 0.0553991 -0.00939685
5.88979e-05 0.0455611 -0.00476042
1.40253e-15 0.0579675 -0.00425715
0 0 0
0 0 0
0 0 0
0 0 0
6.88803e-16 0.0553991 -0.00939685
-7.67619e-05 0.0438096 -0.0102801
1.40253e-15 0.0579675 -0.00425715
-5.88979e-05 0.0455611 -0.00476042
0 0 0
0 0 0
0 0 0
0 0 0
-7.67619e-05 0.0438096 -0.0102801
-5.78952e-05 0.014531 -0.0122538
-5.88979e-05 0.0455611 -0.00476042
-7.06859e-05 0.0137066 -0.00593567
0 0 0
0 0 0
0 0 0
0 0 0
-5.78952e-05 0.014531 -0.0122538
0.00020806 -0.0320711 -0.0125642
-7.06859e-05 0.0137066 -0.00593567
5.01966e-05 -0.0356977 -0.00589181
0 0 0
0 0 0
0 0 0
0 0 0
0.00020806 -0.0320711 -0.0125642
0 0 0
5.01966e-05 -0.0356977 -0.00589181
0 0 0
0 0 0
0 0 0
0 0 0
0 0 0
0 0 0
-5.01966e-05 -0.0356977 -0.00589181
0 0 0
-2.10758e-05 -0.0428481 -0.00383082
0 0 0
0 0 0
0 0 0
0 0 0
-5.01966e-05 -0.0356977 -0.00589181
7.06859e-05 0.0137066 -0.00593567
-2.10758e-05 -0.0428481 -0.00383082
5.94509e-05 0.0110762 -0.00392405
0 0 0
0 0 0
0 0 0
0 0 0
7.06859e-05 0.0137066 -0.00593567
5.88979e-05 0.0455611 -0.00476042
5.94509e-05 0.0110762 -0.00392405
4.05588e-05 0.045601 -0.00299633
0 0 0
0 0 0
0 0 0
0 0 0
5.88979e-05 0.0455611 -0.00476042
1.40253e-15 0.0579675 -0.00425715
4.05588e-05 0.045601 -0.00299633
1.22354e-15 0.058243 -0.00266319
0 0 0
0 0 0
0 0 0
0 0 0
1.40253e-15 0.0579675 -0.00425715
-5.88979e-05 0.0455611 -0.00476042
1.22354e-15 0.058243 -0.00266319
-4.05588e-05 0.045601 -0.00299633
0 0 0
0 0 0
0 0 0
0 0 0
-5.88979e-05 0.0455611 -0.00476042
-7.06859e-05 0.0137066 -0.00593567
-4.05588e-05 0.045601 -0.00299633
-5.94509e-05 0.0110762 -0.00392405
0 0 0
0 0 0
0 0 0
0 0 0
-7.06859e-05 0.0137066 -0.00593567
5.01966e-05 -0.0356977 -0.00589181
-5.94509e-05 0.0110762 -0.00392405
2.10758e-05 -0.0428481 -0.00383082
0 0 0
0 0 0
0 0 0
0 0 0
5.01966e-05 -0.0356977 -0.00589181
0 0 0
2.10758e-05 -0.0428481 -0.00383082
0 0 0
0 0 0
0 0 0
0 0 0
0 0 0
0 0 0
-2.10758e-05 -0.0428481 -0.00383082
0 0 0
-8.52917e-06 -0.0498271 -0.00281079
0 0 0
0 0 0
0 0 0
0 0 0
-2.10758e-05 -0.0428481 -0.00383082
5.94509e-05 0.0110762 -0.00392405
-8.52917e-06 -0.0498271 -0.00281079
4.37031e-05 0.0109359 -0.00281431
0 0 0
0 0 0
0 0 0
0 0 0
5.94509e-05 0.0110762 -0.00392405
4.05588e-05 0.045601 -0.00299633
4.37031e-05 0.0109359 -0.00281431
2.20219e-05 0.0444008 -0.0020784
0 0 0
0 0 0
0 0 0
0 0 0
4.05588e-05 0.045601 -0.00299633
1.22354e-15 0.058243 -0.00266319
2.20219e-05 0.0444008 -0.0020784
7.59831e-16 0.055287 -0.00187541
0 0 0
0 0 0
0 0 0
0 0 0
1.22354e-15 0.058243 -0.00266319
-4.05588e-05 0.045601 -0.00299633
7.59831e-16 0.055287 -0.00187541
-2.20219e-05 0.0444008 -0.0020784
0 0 0
0 0 0
0 0 0
0 0 0
-4.05588e-05 0.045601 -0.00299633
-5.94509e-05 0.0110762 -0.00392405
-2.20219e-05 0.0444008 -0.0020784
-4.37031e-05 0.0109359 -0.00281431
0 0 0
0 0 0
0 0 0
0 0 0
-5.94509e-05 0.0110762 -0.00392405
2.10758e-05 -0.0428481 -0.00383082
-4.37031e-05 0.0109359 -0.00281431
8.52917e-06 -0.0498271 -0.00281079
0 0 0
0 0 0
0 0 0
0 0 0
2.10758e-05 -0.0428481 -0.00383082
0 0 0
8.52917e-06 -0.0498271 -0.00281079
0 0 0
0 0 0
0 0 0
0 0 0
0 0 0
0 0 0
-8.52917e-06 -0.0498271 -0.00281079
0 0 0
-5.50883e-06 -0.046643 -0.00176091
0 0 0
0 0 0
0 0 0
0 0 0
-8.52917e-06 -0.0498271 -0.00281079
4.37031e-05 0.0109359 -0.00281431
-5.50883e-06 -0.046643 -0.00176091
2.26747e-05 0.0197623 -0.00165156
0 0 0
0 0 0
0 0 0
0 0 0
4.37031e-05 0.0109359 -0.00281431
2.20219e-05 0.0444008 -0.0020784
2.26747e-05 0.0197623 -0.00165156
5.05484e-06 0.0439703 -0.00116137
0 0 0
0 0 0
0 0 0
0 0 0
2.20219e-05 0.0444008 -0.0020784
7.59831e-16 0.055287 -0.00187541
5.05484e-06 0.0439703 -0.00116137
2.57299e-16 0.0505805 -0.00107556
0 0 0
0 0 0
0 0 0
0 0 0
7.59831e-16 0.055287 -0.00187541
-2.20219e-05 0.0444008 -0.0020784
2.57299e-16 0.0505805 -0.00107556
-5.05484e-06 0.0439703 -0.00116137
0 0 0
0 0 0
0 0 0
0 0 0
-2.20219e-05 0.0444008 -0.0020784
-4.37031e-05 0.0109359 -0.00281431
-5.05484e-06 0.0439703 -0.00116137
-2.26747e-05 0.0197623 -0.00165156
0 0 0
0 0 0
0 0 0
0 0 0
-4.37031e-05 0.0109359 -0.00281431
8.52917e-06 -0.0498271 -0.00281079
-2.26747e-05 0.0197623 -0.00165156
5.50883e-06 -0.046643 -0.00176091
0 0 0
0 0 0
0 0 0
0 0 0
8.52917e-06 -0.0498271 -0.00281079
0 0 0
5.50883e-06 -0.046643 -0.00176091
0 0 0
0 0 0
0 0 0
0 0 0
0 0 0
0 0 0
-5.50883e-06 -0.046643 -0.00176091
0 0 0
-1.50295e-05 -0.0469021 7.97822e-06
0 0 0
0 0 0
0 0 0
0 0 0
-5.50883e-06 -0.046643 -0.00176091
2.26747e-05 0.0197623 -0.00165156
-1.50295e-05 -0.0469021 7.97822e-06
2.23964e-07 0.00293221 0.000744432
0 0 0
0 0 0
0 0 0
0 0 0
2.26747e-05 0.0197623 -0.00165156
5.05484e-06 0.0439703 -0.00116137
2.23964e-07 0.00293221 0.000744432
-2.46937e-06 0.0143425 0.00111457
0 0 0
0 0 0
0 0 0
0 0 0
5.05484e-06 0.0439703 -0.00116137
2.57299e-16 0.0505805 -0.00107556
-2.46937e-06 0.0143425 0.00111457
1.08209e-16 0.0165485 0.00114212
0 0 0
0 0 0
0 0 0
0 0 0
2.57299e-16 0.0505805 -0.00107556
-5.05484e-06 0.0439703 -0.00116137
1.08209e-16 0.0165485 0.00114212
2.46937e-06 0.0143425 0.00111457
0 0 0
0 0 0
0 0 0
0 0 0
-5.05484e-06 0.0439703 -0.00116137
-2.26747e-05 0.0197623 -0.00165156
2.46937e-06 0.0143425 0.00111457
-2.23964e-07 0.00293221 0.000744432
0 0 0
0 0 0
0 0 0
0 0 0
-2.26747e-05 0.0197623 -0.00165156
5.50883e-06 -0.046643 -0.00176091
-2.23964e-07 0.00293221 0.000744432
1.50295e-05 -0.0469021 7.97822e-06
0 0 0
0 0 0
0 0 0
0 0 0
5.50883e-06 -0.046643 -0.00176091
0 0 0
1.50295e-05 -0.0469021 7.97822e-06
0 0 0
0 0 0
0 0 0
0 0 0
0 0 0
0 0 0
-1.50295e-05 -0.0469021 7.97822e-06
0 0 0
-1.12246e-05 0.0240951 0.00608845
0 0 0
0 0 0
0 0 0
0 0 0
-1.50295e-05 -0.0469021 7.97822e-06
2.23964e-07 0.00293221 0.000744432
-1.12246e-05 0.0240951 0.00608845
-4.34568e-06 0.0411059 0.00879849
0 0 0
0 0 0
0 0 0
0 0 0
2.23964e-07 0.00293221 0.000744432
-2.46937e-06 0.0143425 0.00111457
-4.34568e-06 0.0411059 0.00879849
1.40069e-06 0.044054 0.00939811
0 0 0
0 0 0
0 0 0
0 0 0
-2.46937e-06 0.0143425 0.00111457
1.08209e-16 0.0165485 0.00114212
1.40069e-06 0.044054 0.00939811
1.13818e-16 0.0444674 0.00947223
0 0 0
0 0 0
0 0 0
0 0 0
1.08209e-16 0.0165485 0.00114212
2.46937e-06 0.0143425 0.00111457
1.13818e-16 0.0444674 0.00947223
-1.40069e-06 0.044054 0.00939811
0 0 0
0 0 0
0 0 0
0 0 0
2.46937e-06 0.0143425 0.00111457
-2.23964e-07 0.00293221 0.000744432
-1.40069e-06 0.044054 0.00939811
4.34568e-06 0.0411059 0.00879849
0 0 0
0 0 0
0 0 0
0 0 0
-2.23964e-07 0.00293221 0.000744432
1.50295e-05 -0.0469021 7.97822e-06
4.34568e-06 0.0411059 0.00879849
1.12246e-05 0.0240951 0.00608845
0 0 0
0 0 0
0 0 0
0 0 0
1.50295e-05 -0.0469021 7.97822e-06
0 0 0
1.12246e-05 0.0240951 0.00608845
0 0 0
0 0 0
0 0 0
0 0 0
0 0 0
0 0 0
-1.12246e-05 0.0240951 0.00608845
0 0 0
-2.30865e-07 0.0118922 -0.0879926
0 0 0
0 0 0
0 0 0
0 0 0
-1.12246e-05 0.0240951 0.00608845
-4.34568e-06 0.0411059 0.00879849
-2.30865e-07 0.0118922 -0.0879926
4.31903e-07 0.0188289 -0.137227
0 0 0
0 0 0
0 0 0
0 0 0
-4.34568e-06 0.0411059 0.00879849
1.40069e-06 0.044054 0.00939811
4.31903e-07 0.0188289 -0.137227
-1.74791e-07 0.0199946 -0.145489
0 0 0
0 0 0
0 0 0
0 0 0
1.40069e-06 0.044054 0.00939811
1.13818e-16 0.0444674 0.00947223
-1.74791e-07 0.0199946 -0.145489
1.63685e-17 0.0201659 -0.146639
0 0 0
0 0 0
0 0 0
0 0 0
1.13818e-16 0.0444674 0.00947223
-1.40069e-06 0.044054 0.00939811
1.63685e-17 0.0201659 -0.146639
1.74791e-07 0.0199946 -0.145489
0 0 0
0 0 0
0 0 0
0 0 0
-1.40069e-06 0.044054 0.00939811
4.34568e-06 0.0411059 0.00879849
1.74791e-07 0.0199946 -0.145489
-4.31903e-07 0.0188289 -0.137227
0 0 0
0 0 0
0 0 0
0 0 0
4.34568e-06 0.0411059 0.00879849
1.12246e-05 0.0240951 0.00608845
-4.31903e-07 0.0188289 -0.137227
2.30865e-07 0.0118922 -0.0879926
0 0 0
0 0 0
0 0 0
0 0 0
1.12246e-05 0.0240951 0.00608845
0 0 0
2.30865e-07 0.0118922 -0.0879926
0 0 0
0 0 0
-0.00194826 -0.0121254 -0.0442631
0 0 0
-0.00020806 -0.0320711 -0.0125642
0 0 0
-0.00071933 -0.0219821 0.00203121
0 0 0
-0.000276229 -0.0301629 0.00392994
-0.00194826 -0.0121254 -0.0442631
7.36212e-05 0.0272179 -0.0431577
-0.00020806 -0.0320711 -0.0125642
5.78952e-05 0.014531 -0.0122538
-0.00071933 -0.0219821 0.00203121
0.000668484 0.00646437 0.00498213
-0.000276229 -0.0301629 0.00392994
0.00447388 -0.00505069 0.00690085
7.36212e-05 0.0272179 -0.0431577
0.000228347 0.0545319 -0.037555
5.78952e-05 0.014531 -0.0122538
7.67619e-05 0.0438096 -0.0102801
0.000668484 0.00646437 0.00498213
0.00176567 0.0834432 0.00695859
0.00447388 -0.00505069 0.00690085
0.00526872 0.0763537 0.00890061
0.000228347 0.0545319 -0.037555
-7.923e-15 0.0657497 -0.0355609
7.67619e-05 0.0438096 -0.0102801
6.88803e-16 0.0553991 -0.00939685
0.00176567 0.0834432 0.00695859
-9.31779e-14 0.118239 0.007573
0.00526872 0.0763537 0.00890061
-1.01735e-13 0.113353 0.00953023
-7.923e-15 0.0657497 -0.0355609
-0.000228347 0.0545319 -0.037555
6.88803e-16 0.0553991 -0.00939685
-7.67619e-05 0.0438096 -0.0102801
-9.31779e-14 0.118239 0.007573
-0.00176567 0.0834432 0.00695859
-1.01735e-13 0.113353 0.00953023
-0.00526872 0.0763537 0.00890061
-0.000228347 0.0545319 -0.037555
-7.36212e-05 0.0272179 -0.0431577
-7.67619e-05 0.0438096 -0.0102801
-5.78952e-05 0.014531 -0.0122538
-0.00176567 0.0834432 0.00695859
-0.000668484 0.00646437 0.00498213
-0.00526872 0.0763537 0.00890061
-0.00447388 -0.00505069 0.00690085
-7.36212e-05 0.0272179 -0.0431577
0.00194826 -0.0121254 -0.0442631
-5.78952e-05 0.014531 -0.0122538
0.00020806 -0.0320711 -0.0125642
-0.000668484 0.00646437 0.00498213
0.00071933 -0.0219821 0.00203121
-0.00447388 -0.00505069 0.00690085
0.000276229 -0.0301629 0.00392994
0.00194826 -0.0121254 -0.0442631
0 0 0
0.00020806 -0.0320711 -0.0125642
0 0 0
0.00071933 -0.0219821 0.00203121
0 0 0
0.000276229 -0.0301629 0.00392994
0 0 0
0 0 0
-0.00020806 -0.0320711 -0.0125642
0 0 0
-5.01966e-05 -0.0356977 -0.00589181
0 0 0
-0.000276229 -0.0301629 0.00392994
0 0 0
0.00371869 -0.0359396 0.000594018
-0.00020806 -0.0320711 -0.0125642
5.78952e-05 0.014531 -0.0122538
-5.01966e-05 -0.0356977 -0.00589181
7.06859e-05 0.0137066 -0.00593567
-0.000276229 -0.0301629 0.00392994
0.00447388 -0.00505069 0.00690085
0.00371869 -0.0359396 0.000594018
0.014535 -0.00956308 0.00468565
5.78952e-05 0.014531 -0.0122538
7.67619e-05 0.0438096 -0.0102801
7.06859e-05 0.0137066 -0.00593567
5.88979e-05 0.0455611 -0.00476042
0.00447388 -0.00505069 0.00690085
0.00526872 0.0763537 0.00890061
0.014535 -0.00956308 0.00468565
0.0125645 0.0794619 0.00811564
7.67619e-05 0.0438096 -0.0102801
6.88803e-16 0.0553991 -0.00939685
5.88979e-05 0.0455611 -0.00476042
1.40253e-15 0.0579675 -0.00425715
0.00526872 0.0763537 0.00890061
-1.01735e-13 0.113353 0.00953023
0.0125645 0.0794619 0.00811564
-3.58239e-14 0.119278 0.00928542
6.88803e-16 0.0553991 -0.00939685
-7.67619e-05 0.0438096 -0.0102801
1.40253e-15 0.0579675 -0.00425715
-5.88979e-05 0.0455611 -0.00476042
-1.01735e-13 0.113353 0.00953023
-0.00526872 0.0763537 0.00890061
-3.58239e-14 0.119278 0.00928542
-0.0125645 0.0794619 0.00811564
-7.67619e-05 0.0438096 -0.0102801
-5.78952e-05 0.014531 -0.0122538
-5.88979e-05 0.0455611 -0.00476042
-7.06859e-05 0.0137066 -0.00593567
-0.00526872 0.0763537 0.00890061
-0.00447388 -0.00505069 0.00690085
-0.0125645 0.0794619 0.00811564
-0.014535 -0.00956308 0.00468565
-5.78952e-05 0.014531 -0.0122538
0.00020806 -0.0320711 -0.0125642
-7.06859e-05 0.0137066 -0.00593567
5.01966e-05 -0.0356977 -0.00589181
-0.00447388 -0.00505069 0.00690085
0.000276229 -0.0301629 0.00392994
-0.014535 -0.00956308 0.00468565
-0.00371869 -0.0359396 0.000594018
0.00020806 -0.0320711 -0.0125642
0 0 0
5.01966e-05 -0.0356977 -0.00589181
0 0 0
0.000276229 -0.0301629 0.00392994
0 0 0
-0.00371869 -0.0359396 0.000594018
0 0 0
0 0 0
-5.01966e-05 -0.0356977 -0.00589181
0 0 0
-2.10758e-05 -0.0428481 -0.00383082
0 0 0
0.00371869 -0.0359396 0.000594018
0 0 0
0.00853689 -0.0452864 -0.00452559
-5.01966e-05 -0.0356977 -0.00589181
7.06859e-05 0.0137066 -0.00593567
-2.10758e-05 -0.0428481 -0.00383082
5.94509e-05 0.0110762 -0.00392405
0.00371869 -0.0359396 0.000594018
0.014535 -0.00956308 0.00468565
0.00853689 -0.0452864 -0.00452559
0.0221364 -0.0131513 0.00310713
7.06859e-05 0.0137066 -0.00593567
5.88979e-05 0.0455611 -0.00476042
5.94509e-05 0.0110762 -0.00392405
4.05588e-05 0.045601 -0.00299633
0.014535 -0.00956308 0.00468565
0.0125645 0.0794619 0.00811564
0.0221364 -0.0131513 0.00310713
0.0159801 0.085288 0.01019
5.88979e-05 0.0455611 -0.00476042
1.40253e-15 0.0579675 -0.00425715
4.05588e-05 0.045601 -0.00299633
1.22354e-15 0.058243 -0.00266319
0.0125645 0.0794619 0.00811564
-3.58239e-14 0.119278 0.00928542
0.0159801 0.085288 0.01019
-2.05044e-14 0.126713 0.0127135
1.40253e-15 0.0579675 -0.00425715
-5.88979e-05 0.0455611 -0.00476042
1.22354e-15 0.058243 -0.00266319
-4.05588e-05 0.045601 -0.00299633
-3.58239e-14 0.119278 0.00928542
-0.0125645 0.0794619 0.00811564
-2.05044e-14 0.126713 0.0127135
-0.0159801 0.085288 0.01019
-5.88979e-05 0.0455611 -0.00476042
-7.06859e-05 0.0137066 -0.00593567
-4.05588e-05 0.045601 -0.00299633
-5.94509e-05 0.0110762 -0.00392405
-0.0125645 0.0794619 0.00811564
-0.014535 -0.00956308 0.00468565
-0.0159801 0.085288 0.01019
-0.0221364 -0.0131513 0.00310713
-7.06859e-05 0.0137066 -0.00593567
5.01966e-05 -0.0356977 -0.00589181
-5.94509e-05 0.0110762 -0.00392405
2.10758e-05 -0.0428481 -0.00383082
-0.014535 -0.00956308 0.00468565
-0.00371869 -0.0359396 0.000594018
-0.0221364 -0.0131513 0.00310713
-0.00853689 -0.0452864 -0.00452559
5.01966e-05 -0.0356977 -0.00589181
0 0 0
2.10758e-05 -0.0428481 -0.00383082
0 0 0
-0.00371869 -0.0359396 0.000594018
0 0 0
-0.00853689 -0.0452864 -0.00452559
0 0 0
0 0 0
-2.10758e-05 -0.0428481 -0.00383082
0 0 0
-8.52917e-06 -0.0498271 -0.00281079
0 0 0
0.00853689 -0.0452864 -0.00452559
0 0 0
0.0125131 -0.056611 -0.0135169
-2.10758e-05 -0.0428481 -0.00383082
5.94509e-05 0.0110762 -0.00392405
-8.52917e-06 -0.0498271 -0.00281079
4.37031e-05 0.0109359 -0.00281431
0.00853689 -0.0452864 -0.00452559
0.0221364 -0.0131513 0.00310713
0.0125131 -0.056611 -0.0135169
0.0173605 -0.0121173 0.000971415
5.94509e-05 0.0110762 -0.00392405
4.05588e-05 0.045601 -0.00299633
4.37031e-05 0.0109359 -0.00281431
2.20219e-05 0.0444008 -0.0020784
0.0221364 -0.0131513 0.00310713
0.0159801 0.085288 0.01019
0.0173605 -0.0121173 0.000971415
0.00683491 0.0856648 0.0144631
4.05588e-05 0.045601 -0.00299633
1.22354e-15 0.058243 -0.00266319
2.20219e-05 0.0444008 -0.0020784
7.59831e-16 0.055287 -0.00187541
0.0159801 0.085288 0.01019
-2.05044e-14 0.126713 0.0127135
0.00683491 0.0856648 0.0144631
-1.01808e-13 0.122167 0.0190163
1.22354e-15 0.058243 -0.00266319
-4.05588e-05 0.045601 -0.00299633
7.59831e-16 0.055287 -0.00187541
-2.20219e-05 0.0444008 -0.0020784
-2.05044e-14 0.126713 0.0127135
-0.0159801 0.085288 0.01019
-1.01808e-13 0.122167 0.0190163
-0.00683491 0.0856648 0.0144631
-4.05588e-05 0.045601 -0.00299633
-5.94509e-05 0.0110762 -0.00392405
-2.20219e-05 0.0444008 -0.0020784
-4.37031e-05 0.0109359 -0.00281431
-0.0159801 0.085288 0.01019
-0.0221364 -0.0131513 0.00310713
-0.00683491 0.0856648 0.0144631
-0.0173605 -0.0121173 0.000971415
-5.94509e-05 0.0110762 -0.00392405
2.10758e-05 -0.0428481 -0.00383082
-4.37031e-05 0.0109359 -0.00281431
8.52917e-06 -0.0498271 -0.00281079
-0.0221364 -0.0131513 0.00310713
-0.00853689 -0.0452864 -0.00452559
-0.0173605 -0.0121173 0.000971415
-0.0125131 -0.056611 -0.0135169
2.10758e-05 -0.0428481 -0.00383082
0 0 0
8.52917e-06 -0.0498271 -0.00281079
0 0 0
-0.00853689 -0.0452864 -0.00452559
0 0 0
-0.0125131 -0.056611 -0.0135169
0 0 0
0 0 0
-8.52917e-06 -0.0498271 -0.00281079
0 0 0
-5.50883e-06 -0.046643 -0.00176091
0 0 0
0.0125131 -0.056611 -0.0135169
0 0 0
0.00870409 -0.0484584 -0.0282562
-8.52917e-06 -0.0498271 -0.00281079
4.37031e-05 0.0109359 -0.00281431
-5.50883e-06 -0.046643 -0.00176091
2.26747e-05 0.0197623 -0.00165156
0.0125131 -0.056611 -0.0135169
0.0173605 -0.0121173 0.000971415
0.00870409 -0.0484584 -0.0282562
-0.00930719 0.0112771 -0.00250226
4.37031e-05 0.0109359 -0.00281431
2.20219e-05 0.0444008 -0.0020784
2.26747e-05 0.0197623 -0.00165156
5.05484e-06 0.0439703 -0.00116137
0.0173605 -0.0121173 0.000971415
0.00683491 0.0856648 0.0144631
-0.00930719 0.0112771 -0.00250226
-0.0168464 0.0804668 0.0176473
2.20219e-05 0.0444008 -0.0020784
7.59831e-16 0.055287 -0.00187541
5.05484e-06 0.0439703 -0.00116137
2.57299e-16 0.0505805 -0.00107556
0.00683491 0.0856648 0.0144631
-1.01808e-13 0.122167 0.0190163
-0.0168464 0.0804668 0.0176473
-2.06044e-13 0.102454 0.0234553
7.59831e-16 0.055287 -0.00187541
-2.20219e-05 0.0444008 -0.0020784
2.57299e-16 0.0505805 -0.00107556
-5.05484e-06 0.0439703 -0.00116137
-1.01808e-13 0.122167 0.0190163
-0.00683491 0.0856648 0.0144631
-2.06044e-13 0.102454 0.0234553
0.0168464 0.0804668 0.0176473
-2.20219e-05 0.0444008 -0.0020784
-4.37031e-05 0.0109359 -0.00281431
-5.05484e-06 0.0439703 -0.00116137
-2.26747e-05 0.0197623 -0.00165156
-0.00683491 0.0856648 0.0144631
-0.0173605 -0.0121173 0.000971415
0.0168464 0.0804668 0.0176473
0.00930719 0.0112771 -0.00250226
-4.37031e-05 0.0109359 -0.00281431
8.52917e-06 -0.0498271 -0.00281079
-2.26747e-05 0.0197623 -0.00165156
5.50883e-06 -0.046643 -0.00176091
-0.0173605 -0.0121173 0.000971415
-0.0125131 -0.056611 -0.0135169
0.00930719 0.0112771 -0.00250226
-0.00870409 -0.0484584 -0.0282562
8.52917e-06 -0.0498271 -0.00281079
0 0 0
5.50883e-06 -0.046643 -0.00176091
0 0 0
-0.0125131 -0.056611 -0.0135169
0 0 0
-0.00870409 -0.0484584 -0.0282562
0 0 0
0 0 0
-5.50883e-06 -0.046643 -0.00176091
0 0 0
-1.50295e-05 -0.0469021 7.97822e-06
0 0 0
0.00870409 -0.0484584 -0.0282562
0 0 0
-0.0148214 -0.0470433 -0.0441002
-5.50883e-06 -0.046643 -0.00176091
2.26747e-05 0.0197623 -0.00165156
-1.50295e-05 -0.0469021 7.97822e-06
2.23964e-07 0.00293221 0.000744432
0.00870409 -0.0484584 -0.0282562
-0.00930719 0.0112771 -0.00250226
-0.0148214 -0.0470433 -0.0441002
-0.0416356 -0.00201684 -0.00935004
2.26747e-05 0.0197623 -0.00165156
5.05484e-06 0.0439703 -0.00116137
2.23964e-07 0.00293221 0.000744432
-2.46937e-06 0.0143425 0.00111457
-0.00930719 0.0112771 -0.00250226
-0.0168464 0.0804668 0.0176473
-0.0416356 -0.00201684 -0.00935004
-0.0296189 0.0243068 0.00959663
5.05484e-06 0.0439703 -0.00116137
2.57299e-16 0.0505805 -0.00107556
-2.46937e-06 0.0143425 0.00111457
1.08209e-16 0.0165485 0.00114212
-0.0168464 0.0804668 0.0176473
-2.06044e-13 0.102454 0.0234553
-0.0296189 0.0243068 0.00959663
1.19653e-14 0.0309461 0.0141098
2.57299e-16 0.0505805 -0.00107556
-5.05484e-06 0.0439703 -0.00116137