# vtk DataFile Version 3.0
#This file was generated by the deal.II library on 2015/5/15 at 10:34:13
ASCII
DATASET UNSTRUCTURED_GRID

POINTS 4096 double
0 0 0
0.125 0 0
0 0.125 0
0.125 0.125 0
0 0 0.125
0.125 0 0.125
0 0.125 0.125
0.125 0.125 0.125
0.125 0 0
0.25 0 0
0.125 0.125 0
0.25 0.125 0
0.125 0 0.125
0.25 0 0.125
0.125 0.125 0.125
0.25 0.125 0.125
0 0.125 0
0.125 0.125 0
0 0.25 0
0.125 0.25 0
0 0.125 0.125
0.125 0.125 0.125
0 0.25 0.125
0.125 0.25 0.125
0.125 0.125 0
0.25 0.125 0
0.125 0.25 0
0.25 0.25 0
0.125 0.125 0.125
0.25 0.125 0.125
0.125 0.25 0.125
0.25 0.25 0.125
0 0 0.125
0.125 0 0.125
0 0.125 0.125
0.125 0.125 0.125
0 0 0.25
0.125 0 0.25
0 0.125 0.25
0.125 0.125 0.25
0.125 0 0.125
0.25 0 0.125
0.125 0.125 0.125
0.25 0.125 0.125
0.125 0 0.25
0.25 0 0.25
0.125 0.125 0.25
0.25 0.125 0.25
0 0.125 0.125
0.125 0.125 0.125
0 0.25 0.125
0.125 0.25 0.125
0 0.125 0.25
0.125 0.125 0.25
0 0.25 0.25
0.125 0.25 0.25
0.125 0.125 0.125
0.25 0.125 0.125
0.125 0.25 0.125
0.25 0.25 0.125
0.125 0.125 0.25
0.25 0.125 0.25
0.125 0.25 0.25
0.25 0.25 0.25
0.25 0 0
0.375 0 0
0.25 0.125 0
0.375 0.125 0
0.25 0 0.125
0.375 0 0.125
0.25 0.125 0.125
0.375 0.125 0.125
0.375 0 0
0.5 0 0
0.375 0.125 0
0.5 0.125 0
0.375 0 0.125
0.5 0 0.125
0.375 0.125 0.125
0.5 0.125 0.125
0.25 0.125 0
0.375 0.125 0
0.25 0.25 0
0.375 0.25 0
0.25 0.125 0.125
0.375 0.125 0.125
0.25 0.25 0.125
0.375 0.25 0.125
0.375 0.125 0
0.5 0.125 0
0.375 0.25 0
0.5 0.25 0
0.375 0.125 0.125
0.5 0.125 0.125
0.375 0.25 0.125
0.5 0.25 0.125
0.25 0 0.125
0.375 0 0.125
0.25 0.125 0.125
0.375 0.125 0.125
0.25 0 0.25
0.375 0 0.25
0.25 0.125 0.25
0.375 0.125 0.25
0.375 0 0.125
0.5 0 0.125
0.375 0.125 0.125
0.5 0.125 0.125
0.375 0 0.25
0.5 0 0.25
0.375 0.125 0.25
0.5 0.125 0.25
0.25 0.125 0.125
0.375 0.125 0.125
0.25 0.25 0.125
0.375 0.25 0.125
0.25 0.125 0.25
0.375 0.125 0.25
0.25 0.25 0.25
0.375 0.25 0.25
0.375 0.125 0.125
0.5 0.125 0.125
0.375 0.25 0.125
0.5 0.25 0.125
0.375 0.125 0.25
0.5 0.125 0.25
0.375 0.25 0.25
0.5 0.25 0.25
0 0.25 0
0.125 0.25 0
0 0.375 0
0.125 0.375 0
0 0.25 0.125
0.125 0.25 0.125
0 0.375 0.125
0.125 0.375 0.125
0.125 0.25 0
0.25 0.25 0
0.125 0.375 0
0.25 0.375 0
0.125 0.25 0.125
0.25 0.25 0.125
0.125 0.375 0.125
0.25 0.375 0.125
0 0.375 0
0.125 0.375 0
0 0.5 0
0.125 0.5 0
0 0.375 0.125
0.125 0.375 0.125
0 0.5 0.125
0.125 0.5 0.125
0.125 0.375 0
0.25 0.375 0
0.125 0.5 0
0.25 0.5 0
0.125 0.375 0.125
0.25 0.375 0.125
0.125 0.5 0.125
0.25 0.5 0.125
0 0.25 0.125
0.125 0.25 0.125
0 0.375 0.125
0.125 0.375 0.125
0 0.25 0.25
0.125 0.25 0.25
0 0.375 0.25
0.125 0.375 0.25
0.125 0.25 0.125
0.25 0.25 0.125
0.125 0.375 0.125
0.25 0.375 0.125
0.125 0.25 0.25
0.25 0.25 0.25
0.125 0.375 0.25
0.25 0.375 0.25
0 0.375 0.125
0.125 0.375 0.125
0 0.5 0.125
0.125 0.5 0.125
0 0.375 0.25
0.125 0.375 0.25
0 0.5 0.25
0.125 0.5 0.25
0.125 0.375 0.125
0.25 0.375 0.125
0.125 0.5 0.125
0.25 0.5 0.125
0.125 0.375 0.25
0.25 0.375 0.25
0.125 0.5 0.25
0.25 0.5 0.25
0.25 0.25 0
0.375 0.25 0
0.25 0.375 0
0.375 0.375 0
0.25 0.25 0.125
0.375 0.25 0.125
0.25 0.375 0.125
0.375 0.375 0.125
0.375 0.25 0
0.5 0.25 0
0.375 0.375 0
0.5 0.375 0
0.375 0.25 0.125
0.5 0.25 0.125
0.375 0.375 0.125
0.5 0.375 0.125
0.25 0.375 0
0.375 0.375 0
0.25 0.5 0
0.375 0.5 0
0.25 0.375 0.125
0.375 0.375 0.125
0.25 0.5 0.125
0.375 0.5 0.125
0.375 0.375 0
0.5 0.375 0
0.375 0.5 0
0.5 0.5 0
0.375 0.375 0.125
0.5 0.375 0.125
0.375 0.5 0.125
0.5 0.5 0.125
0.25 0.25 0.125
0.375 0.25 0.125
0.25 0.375 0.125
0.375 0.375 0.125
0.25 0.25 0.25
0.375 0.25 0.25
0.25 0.375 0.25
0.375 0.375 0.25
0.375 0.25 0.125
0.5 0.25 0.125
0.375 0.375 0.125
0.5 0.375 0.125
0.375 0.25 0.25
0.5 0.25 0.25
0.375 0.375 0.25
0.5 0.375 0.25
0.25 0.375 0.125
0.375 0.375 0.125
0.25 0.5 0.125
0.375 0.5 0.125
0.25 0.375 0.25
0.375 0.375 0.25
0.25 0.5 0.25
0.375 0.5 0.25
0.375 0.375 0.125
0.5 0.375 0.125
0.375 0.5 0.125
0.5 0.5 0.125
0.375 0.375 0.25
0.5 0.375 0.25
0.375 0.5 0.25
0.5 0.5 0.25
0 0 0.25
0.125 0 0.25
0 0.125 0.25
0.125 0.125 0.25
0 0 0.375
0.125 0 0.375
0 0.125 0.375
0.125 0.125 0.375
0.125 0 0.25
0.25 0 0.25
0.125 0.125 0.25
0.25 0.125 0.25
0.125 0 0.375
0.25 0 0.375
0.125 0.125 0.375
0.25 0.125 0.375
0 0.125 0.25
0.125 0.125 0.25
0 0.25 0.25
0.125 0.25 0.25
0 0.125 0.375
0.125 0.125 0.375
0 0.25 0.375
0.125 0.25 0.375
0.125 0.125 0.25
0.25 0.125 0.25
0.125 0.25 0.25
0.25 0.25 0.25
0.125 0.125 0.375
0.25 0.125 0.375
0.125 0.25 0.375
0.25 0.25 0.375
0 0 0.375
0.125 0 0.375
0 0.125 0.375
0.125 0.125 0.375
0 0 0.5
0.125 0 0.5
0 0.125 0.5
0.125 0.125 0.5
0.125 0 0.375
0.25 0 0.375
0.125 0.125 0.375
0.25 0.125 0.375
0.125 0 0.5
0.25 0 0.5
0.125 0.125 0.5
0.25 0.125 0.5
0 0.125 0.375
0.125 0.125 0.375
0 0.25 0.375
0.125 0.25 0.375
0 0.125 0.5
0.125 0.125 0.5
0 0.25 0.5
0.125 0.25 0.5
0.125 0.125 0.375
0.25 0.125 0.375
0.125 0.25 0.375
0.25 0.25 0.375
0.125 0.125 0.5
0.25 0.125 0.5
0.125 0.25 0.5
0.25 0.25 0.5
0.25 0 0.25
0.375 0 0.25
0.25 0.125 0.25
0.375 0.125 0.25
0.25 0 0.375
0.375 0 0.375
0.25 0.125 0.375
0.375 0.125 0.375
0.375 0 0.25
0.5 0 0.25
0.375 0.125 0.25
0.5 0.125 0.25
0.375 0 0.375
0.5 0 0.375
0.375 0.125 0.375
0.5 0.125 0.375
0.25 0.125 0.25
0.375 0.125 0.25
0.25 0.25 0.25
0.375 0.25 0.25
0.25 0.125 0.375
0.375 0.125 0.375
0.25 0.25 0.375
0.375 0.25 0.375
0.375 0.125 0.25
0.5 0.125 0.25
0.375 0.25 0.25
0.5 0.25 0.25
0.375 0.125 0.375
0.5 0.125 0.375
0.375 0.25 0.375
0.5 0.25 0.375
0.25 0 0.375
0.375 0 0.375
0.25 0.125 0.375
0.375 0.125 0.375
0.25 0 0.5
0.375 0 0.5
0.25 0.125 0.5
0.375 0.125 0.5
0.375 0 0.375
0.5 0 0.375
0.375 0.125 0.375
0.5 0.125 0.375
0.375 0 0.5
0.5 0 0.5
0.375 0.125 0.5
0.5 0.125 0.5
0.25 0.125 0.375
0.375 0.125 0.375
0.25 0.25 0.375
0.375 0.25 0.375
0.25 0.125 0.5
0.375 0.125 0.5
0.25 0.25 0.5
0.375 0.25 0.5
0.375 0.125 0.375
0.5 0.125 0.375
0.375 0.25 0.375
0.5 0.25 0.375
0.375 0.125 0.5
0.5 0.125 0.5
0.375 0.25 0.5
0.5 0.25 0.5
0 0.25 0.25
0.125 0.25 0.25
0 0.375 0.25
0.125 0.375 0.25
0 0.25 0.375
0.125 0.25 0.375
0 0.375 0.375
0.125 0.375 0.375
0.125 0.25 0.25
0.25 0.25 0.25
0.125 0.375 0.25
0.25 0.375 0.25
0.125 0.25 0.375
0.25 0.25 0.375
0.125 0.375 0.375
0.25 0.375 0.375
0 0.375 0.25
0.125 0.375 0.25
0 0.5 0.25
0.125 0.5 0.25
0 0.375 0.375
0.125 0.375 0.375
0 0.5 0.375
0.125 0.5 0.375
0.125 0.375 0.25
0.25 0.375 0.25
0.125 0.5 0.25
0.25 0.5 0.25
0.125 0.375 0.375
0.25 0.375 0.375
0.125 0.5 0.375
0.25 0.5 0.375
0 0.25 0.375
0.125 0.25 0.375
0 0.375 0.375
0.125 0.375 0.375
0 0.25 0.5
0.125 0.25 0.5
0 0.375 0.5
0.125 0.375 0.5
0.125 0.25 0.375
0.25 0.25 0.375
0.125 0.375 0.375
0.25 0.375 0.375
0.125 0.25 0.5
0.25 0.25 0.5
0.125 0.375 0.5
0.25 0.375 0.5
0 0.375 0.375
0.125 0.375 0.375
0 0.5 0.375
0.125 0.5 0.375
0 0.375 0.5
0.125 0.375 0.5
0 0.5 0.5
0.125 0.5 0.5
0.125 0.375 0.375
0.25 0.375 0.375
0.125 0.5 0.375
0.25 0.5 0.375
0.125 0.375 0.5
0.25 0.375 0.5
0.125 0.5 0.5
0.25 0.5 0.5
0.25 0.25 0.25
0.375 0.25 0.25
0.25 0.375 0.25
0.375 0.375 0.25
0.25 0.25 0.375
0.375 0.25 0.375
0.25 0.375 0.375
0.375 0.375 0.375
0.375 0.25 0.25
0.5 0.25 0.25
0.375 0.375 0.25
0.5 0.375 0.25
0.375 0.25 0.375
0.5 0.25 0.375
0.375 0.375 0.375
0.5 0.375 0.375
0.25 0.375 0.25
0.375 0.375 0.25
0.25 0.5 0.25
0.375 0.5 0.25
0.25 0.375 0.375
0.375 0.375 0.375
0.25 0.5 0.375
0.375 0.5 0.375
0.375 0.375 0.25
0.5 0.375 0.25
0.375 0.5 0.25
0.5 0.5 0.25
0.375 0.375 0.375
0.5 0.375 0.375
0.375 0.5 0.375
0.5 0.5 0.375
0.25 0.25 0.375
0.375 0.25 0.375
0.25 0.375 0.375
0.375 0.375 0.375
0.25 0.25 0.5
0.375 0.25 0.5
0.25 0.375 0.5
0.375 0.375 0.5
0.375 0.25 0.375
0.5 0.25 0.375
0.375 0.375 0.375
0.5 0.375 0.375
0.375 0.25 0.5
0.5 0.25 0.5
0.375 0.375 0.5
0.5 0.375 0.5
0.25 0.375 0.375
0.375 0.375 0.375
0.25 0.5 0.375
0.375 0.5 0.375
0.25 0.375 0.5
0.375 0.375 0.5
0.25 0.5 0.5
0.375 0.5 0.5
0.375 0.375 0.375
0.5 0.375 0.375
0.375 0.5 0.375
0.5 0.5 0.375
0.375 0.375 0.5
0.5 0.375 0.5
0.375 0.5 0.5
0.5 0.5 0.5
0.5 0 0
0.625 0 0
0.5 0.125 0
0.625 0.125 0
0.5 0 0.125
0.625 0 0.125
0.5 0.125 0.125
0.625 0.125 0.125
0.625 0 0
0.75 0 0
0.625 0.125 0
0.75 0.125 0
0.625 0 0.125
0.75 0 0.125
0.625 0.125 0.125
0.75 0.125 0.125
0.5 0.125 0
0.625 0.125 0
0.5 0.25 0
0.625 0.25 0
0.5 0.125 0.125
0.625 0.125 0.125
0.5 0.25 0.125
0.625 0.25 0.125
0.625 0.125 0
0.75 0.125 0
0.625 0.25 0
0.75 0.25 0
0.625 0.125 0.125
0.75 0.125 0.125
0.625 0.25 0.125
0.75 0.25 0.125
0.5 0 0.125
0.625 0 0.125
0.5 0.125 0.125
0.625 0.125 0.125
0.5 0 0.25
0.625 0 0.25
0.5 0.125 0.25
0.625 0.125 0.25
0.625 0 0.125
0.75 0 0.125
0.625 0.125 0.125
0.75 0.125 0.125
0.625 0 0.25
0.75 0 0.25
0.625 0.125 0.25
0.75 0.125 0.25
0.5 0.125 0.125
0.625 0.125 0.125
0.5 0.25 0.125
0.625 0.25 0.125
0.5 0.125 0.25
0.625 0.125 0.25
0.5 0.25 0.25
0.625 0.25 0.25
0.625 0.125 0.125
0.75 0.125 0.125
0.625 0.25 0.125
0.75 0.25 0.125
0.625 0.125 0.25
0.75 0.125 0.25
0.625 0.25 0.25
0.75 0.25 0.25
0.75 0 0
0.875 0 0
0.75 0.125 0
0.875 0.125 0
0.75 0 0.125
0.875 0 0.125
0.75 0.125 0.125
0.875 0.125 0.125
0.875 0 0
1 0 0
0.875 0.125 0
1 0.125 0
0.875 0 0.125
1 0 0.125
0.875 0.125 0.125
1 0.125 0.125
0.75 0.125 0
0.875 0.125 0
0.75 0.25 0
0.875 0.25 0
0.75 0.125 0.125
0.875 0.125 0.125
0.75 0.25 0.125
0.875 0.25 0.125
0.875 0.125 0
1 0.125 0
0.875 0.25 0
1 0.25 0
0.875 0.125 0.125
1 0.125 0.125
0.875 0.25 0.125
1 0.25 0.125
0.75 0 0.125
0.875 0 0.125
0.75 0.125 0.125
0.875 0.125 0.125
0.75 0 0.25
0.875 0 0.25
0.75 0.125 0.25
0.875 0.125 0.25
0.875 0 0.125
1 0 0.125
0.875 0.125 0.125
1 0.125 0.125
0.875 0 0.25
1 0 0.25
0.875 0.125 0.25
1 0.125 0.25
0.75 0.125 0.125
0.875 0.125 0.125
0.75 0.25 0.125
0.875 0.25 0.125
0.75 0.125 0.25
0.875 0.125 0.25
0.75 0.25 0.25
0.875 0.25 0.25
0.875 0.125 0.125
1 0.125 0.125
0.875 0.25 0.125
1 0.25 0.125
0.875 0.125 0.25
1 0.125 0.25
0.875 0.25 0.25
1 0.25 0.25
0.5 0.25 0
0.625 0.25 0
0.5 0.375 0
0.625 0.375 0
0.5 0.25 0.125
0.625 0.25 0.125
0.5 0.375 0.125
0.625 0.375 0.125
0.625 0.25 0
0.75 0.25 0
0.625 0.375 0
0.75 0.375 0
0.625 0.25 0.125
0.75 0.25 0.125
0.625 0.375 0.125
0.75 0.375 0.125
0.5 0.375 0
0.625 0.375 0
0.5 0.5 0
0.625 0.5 0
0.5 0.375 0.125
[...]
POINT_DATA 4096
SCALARS solution_0 double 1
LOOKUP_TABLE default
0 0 0 0 0 -5.02144e-019 0 -2.58472e-019 0 0 0 0 -5.02144e-019 7.82859e-019 -2.58472e-019 -1.60027e-018 0 0 0 0 0 -2.58472e-019 0 4.78157e-019 0 0 0 0 -2.58472e-019 -1.60027e-018 4.78157e-019 8.58272e-019 0 -5.02144e-019 0 -2.58472e-019 0 -3.14258e-018 0 -1.49616e-018 -5.02144e-019 7.82859e-019 -2.58472e-019 -1.60027e-018 -3.14258e-018 -2.63474e-018 -1.49616e-018 -1.94777e-018 0 -2.58472e-019 0 4.78157e-019 0 -1.49616e-018 0 -2.14484e-019 -2.58472e-019 -1.60027e-018 4.78157e-019 8.58272e-019 -1.49616e-018 -1.94777e-018 -2.14484e-019 -7.80636e-019 0 0 0 0 7.82859e-019 -6.40908e-019 -1.60027e-018 -2.64992e-018 0 0 0 0 -6.40908e-019 -1.17292e-018 -2.64992e-018 -1.60608e-018 0 0 0 0 -1.60027e-018 -2.64992e-018 8.58272e-019 1.75565e-019 0 0 0 0 -2.64992e-018 -1.60608e-018 1.75565e-019 -1.25737e-018 7.82859e-019 -6.40908e-019 -1.60027e-018 -2.64992e-018 -2.63474e-018 1.93697e-018 -1.94777e-018 -1.35058e-018 -6.40908e-019 -1.17292e-018 -2.64992e-018 -1.60608e-018 1.93697e-018 -1.97417e-018 -1.35058e-018 -1.28822e-018 -1.60027e-018 -2.64992e-018 8.58272e-019 1.75565e-019 -1.94777e-018 -1.35058e-018 -7.80636e-019 6.78252e-021 -2.64992e-018 -1.60608e-018 1.75565e-019 -1.25737e-018 -1.35058e-018 -1.28822e-018 6.78252e-021 -1.12704e-018 0 0 0 0 0 4.78157e-019 0 1.72645e-019 0 0 0 0 4.78157e-019 8.58272e-019 1.72645e-019 1.42315e-018 0 0 0 0 0 1.72645e-019 0 1.12594e-019 0 0 0 0 1.72645e-019 1.42315e-018 1.12594e-019 1.74294e-019 0 4.78157e-019 0 1.72645e-019 0 -2.14484e-019 0 1.58369e-019 4.78157e-019 8.58272e-019 1.72645e-019 1.42315e-018 -2.14484e-019 -7.80636e-019 1.58369e-019 5.26278e-019 0 1.72645e-019 0 1.12594e-019 0 1.58369e-019 0 7.9452e-019 1.72645e-019 1.42315e-018 1.12594e-019 1.74294e-019 1.58369e-019 5.26278e-019 7.9452e-019 5.82771e-019 0 0 0 0 8.58272e-019 1.75565e-019 1.42315e-018 8.63187e-019 0 0 0 0 1.75565e-019 -1.25737e-018 8.63187e-019 -4.35924e-019 0 0 0 0 1.42315e-018 8.63187e-019 1.74294e-019 9.55594e-019 0 0 0 0 8.63187e-019 -4.35924e-019 9.55594e-019 1.63336e-018 8.58272e-019 1.75565e-019 1.42315e-018 8.63187e-019 -7.80636e-019 6.78252e-021 5.26278e-019 4.37346e-020 1.75565e-019 -1.25737e-018 8.63187e-019 -4.35924e-019 6.78252e-021 -1.12704e-018 4.37346e-020 3.43183e-019 1.42315e-018 8.63187e-019 1.74294e-019 9.55594e-019 5.26278e-019 4.37346e-020 5.82771e-019 -6.08549e-020 8.63187e-019 -4.35924e-019 9.55594e-019 1.63336e-018 4.37346e-020 3.43183e-019 -6.08549e-020 7.6906e-019 0 -3.14258e-018 0 -1.49616e-018 0 -2.48475e-018 0 -1.72141e-018 -3.14258e-018 -2.63474e-018 -1.49616e-018 -1.94777e-018 -2.48475e-018 -3.23379e-018 -1.72141e-018 -2.4043e-018 0 -1.49616e-018 0 -2.14484e-019 0 -1.72141e-018 0 -2.42312e-019 -1.49616e-018 -1.94777e-018 -2.14484e-019 -7.80636e-019 -1.72141e-018 -2.4043e-018 -2.42312e-019 -1.1146e-018 0 -2.48475e-018 0 -1.72141e-018 0 -2.89569e-018 0 -1.48189e-018 -2.48475e-018 -3.23379e-018 -1.72141e-018 -2.4043e-018 -2.89569e-018 -4.50383e-018 -1.48189e-018 -2.33851e-018 0 -1.72141e-018 0 -2.42312e-019 0 -1.48189e-018 0 -2.16804e-019 -1.72141e-018 -2.4043e-018 -2.42312e-019 -1.1146e-018 -1.48189e-018 -2.33851e-018 -2.16804e-019 -1.55435e-019 -2.63474e-018 1.93697e-018 -1.94777e-018 -1.35058e-018 -3.23379e-018 9.90427e-019 -2.4043e-018 -1.0558e-018 1.93697e-018 -1.97417e-018 -1.35058e-018 -1.28822e-018 9.90427e-019 -2.39336e-018 -1.0558e-018 -1.71897e-018 -1.94777e-018 -1.35058e-018 -7.80636e-019 6.78252e-021 -2.4043e-018 -1.0558e-018 -1.1146e-018 -1.1772e-018 -1.35058e-018 -1.28822e-018 6.78252e-021 -1.12704e-018 -1.0558e-018 -1.71897e-018 -1.1772e-018 -1.7039e-018 -3.23379e-018 9.90427e-019 -2.4043e-018 -1.0558e-018 -4.50383e-018 -1.29446e-019 -2.33851e-018 -2.39874e-018 9.90427e-019 -2.39336e-018 -1.0558e-018 -1.71897e-018 -1.29446e-019 -2.69479e-018 -2.39874e-018 -2.6226e-018 -2.4043e-018 -1.0558e-018 -1.1146e-018 -1.1772e-018 -2.33851e-018 -2.39874e-018 -1.55435e-019 -1.40051e-018 -1.0558e-018 -1.71897e-018 -1.1772e-018 -1.7039e-018 -2.39874e-018 -2.6226e-018 -1.40051e-018 -1.60294e-018 0 -2.14484e-019 0 1.58369e-019 0 -2.42312e-019 0 1.1254e-020 -2.14484e-019 -7.80636e-019 1.58369e-019 5.26278e-019 -2.42312e-019 -1.1146e-018 1.1254e-020 2.28032e-019 0 1.58369e-019 0 7.9452e-019 0 1.1254e-020 0 5.67764e-020 1.58369e-019 5.26278e-019 7.9452e-019 5.82771e-019 1.1254e-020 2.28032e-019 5.67764e-020 -3.53885e-019 0 -2.42312e-019 0 1.1254e-020 0 -2.16804e-019 0 -2.9422e-019 -2.42312e-019 -1.1146e-018 1.1254e-020 2.28032e-019 -2.16804e-019 -1.55435e-019 -2.9422e-019 1.18327e-018 0 1.1254e-020 0 5.67764e-020 0 -2.9422e-019 0 -9.94516e-019 1.1254e-020 2.28032e-019 5.67764e-020 -3.53885e-019 -2.9422e-019 1.18327e-018 -9.94516e-019 -2.86061e-019 -7.80636e-019 6.78252e-021 5.26278e-019 4.37346e-020 -1.1146e-018 -1.1772e-018 2.28032e-019 -6.00558e-019 6.78252e-021 -1.12704e-018 4.37346e-020 3.43183e-019 -1.1772e-018 -1.7039e-018 -6.00558e-019 -1.09699e-018 5.26278e-019 4.37346e-020 5.82771e-019 -6.08549e-020 2.28032e-019 -6.00558e-019 -3.53885e-019 8.96028e-019 4.37346e-020 3.43183e-019 -6.08549e-020 7.6906e-019 -6.00558e-019 -1.09699e-018 8.96028e-019 -8.85276e-019 -1.1146e-018 -1.1772e-018 2.28032e-019 -6.00558e-019 -1.55435e-019 -1.40051e-018 1.18327e-018 -2.37334e-019 -1.1772e-018 -1.7039e-018 -6.00558e-019 -1.09699e-018 -1.40051e-018 -1.60294e-018 -2.37334e-019 -1.69255e-018 2.28032e-019 -6.00558e-019 -3.53885e-019 8.96028e-019 1.18327e-018 -2.37334e-019 -2.86061e-019 1.45826e-018 -6.00558e-019 -1.09699e-018 8.96028e-019 -8.85276e-019 -2.37334e-019 -1.69255e-018 1.45826e-018 -1.43791e-018 0 0 0 0 -1.17292e-018 -1.86668e-018 -1.60608e-018 7.75373e-020 0 0 0 0 -1.86668e-018 -3.47881e-018 7.75373e-020 -4.22633e-019 0 0 0 0 -1.60608e-018 7.75373e-020 -1.25737e-018 -1.52146e-018 0 0 0 0 7.75373e-020 -4.22633e-019 -1.52146e-018 -1.77462e-019 -1.17292e-018 -1.86668e-018 -1.60608e-018 7.75373e-020 -1.97417e-018 -4.66174e-018 -1.28822e-018 -2.1492e-018 -1.86668e-018 -3.47881e-018 7.75373e-020 -4.22633e-019 -4.66174e-018 -4.876e-019 -2.1492e-018 -1.84505e-018 -1.60608e-018 7.75373e-020 -1.25737e-018 -1.52146e-018 -1.28822e-018 -2.1492e-018 -1.12704e-018 -1.84549e-018 7.75373e-020 -4.22633e-019 -1.52146e-018 -1.77462e-019 -2.1492e-018 -1.84505e-018 -1.84549e-018 -6.64645e-019 0 0 0 0 -3.47881e-018 -8.90956e-019 -4.22633e-019 -5.64362e-019 0 0 0 0 -8.90956e-019 0 -5.64362e-019 0 0 0 0 0 -4.22633e-019 -5.64362e-019 -1.77462e-019 -4.27841e-019 0 0 0 0 -5.64362e-019 0 -4.27841e-019 0 -3.47881e-018 -8.90956e-019 -4.22633e-019 -5.64362e-019 -4.876e-019 1.31124e-018 -1.84505e-018 -4.59683e-019 -8.90956e-019 0 -5.64362e-019 0 1.31124e-018 0 -4.59683e-019 0 -4.22633e-019 -5.64362e-019 -1.77462e-019 -4.27841e-019 -1.84505e-018 -4.59683e-019 -6.64645e-019 -6.95952e-019 -5.64362e-019 0 -4.27841e-019 0 -4.59683e-019 0 -6.95952e-019 0 0 0 0 0 -1.25737e-018 -1.52146e-018 -4.35924e-019 -1.10675e-018 0 0 0 0 -1.52146e-018 -1.77462e-019 -1.10675e-018 -1.30491e-018 0 0 0 0 -4.35924e-019 -1.10675e-018 1.63336e-018 3.63072e-019 0 0 0 0 -1.10675e-018 -1.30491e-018 3.63072e-019 -1.49434e-018 -1.25737e-018 -1.52146e-018 -4.35924e-019 -1.10675e-018 -1.12704e-018 -1.84549e-018 3.43183e-019 -7.16915e-019 -1.52146e-018 -1.77462e-019 -1.10675e-018 -1.30491e-018 -1.84549e-018 -6.64645e-019 -7.16915e-019 -1.80684e-018 -4.35924e-019 -1.10675e-018 1.63336e-018 3.63072e-019 3.43183e-019 -7.16915e-019 7.6906e-019 -4.8315e-019 -1.10675e-018 -1.30491e-018 3.63072e-019 -1.49434e-018 -7.16915e-019 -1.80684e-018 -4.8315e-019 -2.54415e-018 0 0 0 0 -1.77462e-019 -4.27841e-019 -1.30491e-018 -3.09579e-019 0 0 0 0 -4.27841e-019 0 -3.09579e-019 0 0 0 0 0 -1.30491e-018 -3.09579e-019 -1.49434e-018 -1.11855e-018 0 0 0 0 -3.09579e-019 0 -1.11855e-018 0 -1.77462e-019 -4.27841e-019 -1.30491e-018 -3.09579e-019 -6.64645e-019 -6.95952e-019 -1.80684e-018 -8.35998e-019 -4.27841e-019 0 -3.09579e-019 0 -6.95952e-019 0 -8.35998e-019 0 -1.30491e-018 -3.09579e-019 -1.49434e-018 -1.11855e-018 -1.80684e-018 -8.35998e-019 -2.54415e-018 -2.97495e-019 -3.09579e-019 0 -1.11855e-018 0 -8.35998e-019 0 -2.97495e-019 0 -1.97417e-018 -4.66174e-018 -1.28822e-018 -2.1492e-018 -2.39336e-018 -4.7808e-018 -1.71897e-018 -2.96004e-018 -4.66174e-018 -4.876e-019 -2.1492e-018 -1.84505e-018 -4.7808e-018 2.17733e-019 -2.96004e-018 -1.5229e-018 -1.28822e-018 -2.1492e-018 -1.12704e-018 -1.84549e-018 -1.71897e-018 -2.96004e-018 -1.7039e-018 -1.70664e-018 -2.1492e-018 -1.84505e-018 -1.84549e-018 -6.64645e-019 -2.96004e-018 -1.5229e-018 -1.70664e-018 -4.91774e-019 -2.39336e-018 -4.7808e-018 -1.71897e-018 -2.96004e-018 -2.69479e-018 -4.27467e-018 -2.6226e-018 -2.14068e-018 -4.7808e-018 2.17733e-019 -2.96004e-018 -1.5229e-018 -4.27467e-018 2.39217e-018 -2.14068e-018 1.41372e-019 -1.71897e-018 -2.96004e-018 -1.7039e-018 -1.70664e-018 -2.6226e-018 -2.14068e-018 -1.60294e-018 -1.27448e-018 -2.96004e-018 -1.5229e-018 -1.70664e-018 -4.91774e-019 -2.14068e-018 1.41372e-019 -1.27448e-018 -1.74309e-018 -4.876e-019 1.31124e-018 -1.84505e-018 -4.59683e-019 2.17733e-019 9.69488e-019 -1.5229e-018 5.45948e-019 1.31124e-018 0 -4.59683e-019 0 9.69488e-019 0 5.45948e-019 0 -1.84505e-018 -4.59683e-019 -6.64645e-019 -6.95952e-019 -1.5229e-018 5.45948e-019 -4.91774e-019 -9.1656e-019 -4.59683e-019 0 -6.95952e-019 0 5.45948e-019 0 -9.1656e-019 0 2.17733e-019 9.69488e-019 -1.5229e-018 5.45948e-019 2.39217e-018 1.6917e-018 1.41372e-019 1.15627e-018 9.69488e-019 0 5.45948e-019 0 1.6917e-018 0 1.15627e-018 0 -1.5229e-018 5.45948e-019 -4.91774e-019 -9.1656e-019 1.41372e-019 1.15627e-018 -1.74309e-018 -8.31434e-019 5.45948e-019 0 -9.1656e-019 0 1.15627e-018 0 -8.31434e-019 0 -1.12704e-018 -1.84549e-018 3.43183e-019 -7.16915e-019 -1.7039e-018 -1.70664e-018 -1.09699e-018 -7.41257e-019 -1.84549e-018 -6.64645e-019 -7.16915e-019 -1.80684e-018 -1.70664e-018 -4.91774e-019 -7.41257e-019 -1.04068e-018 3.43183e-019 -7.16915e-019 7.6906e-019 -4.8315e-019 -1.09699e-018 -7.41257e-019 -8.85276e-019 -2.76115e-018 -7.16915e-019 -1.80684e-018 -4.8315e-019 -2.54415e-018 -7.41257e-019 -1.04068e-018 -2.76115e-018 -1.44872e-018 -1.7039e-018 -1.70664e-018 -1.09699e-018 -7.41257e-019 -1.60294e-018 -1.27448e-018 -1.69255e-018 -1.22877e-018 -1.70664e-018 -4.91774e-019 -7.41257e-019 -1.04068e-018 -1.27448e-018 -1.74309e-018 -1.22877e-018 -1.36918e-018 -1.09699e-018 -7.41257e-019 -8.85276e-019 -2.76115e-018 -1.69255e-018 -1.22877e-018 -1.43791e-018 -3.53053e-018 -7.41257e-019 -1.04068e-018 -2.76115e-018 -1.44872e-018 -1.22877e-018 -1.36918e-018 -3.53053e-018 -1.76666e-018 -6.64645e-019 -6.95952e-019 -1.80684e-018 -8.35998e-019 -4.91774e-019 -9.1656e-019 -1.04068e-018 -8.14389e-019 -6.95952e-019 0 -8.35998e-019 0 -9.1656e-019 0 -8.14389e-019 0 -1.80684e-018 -8.35998e-019 -2.54415e-018 -2.97495e-019 -1.04068e-018 -8.14389e-019 -1.44872e-018 4.20729e-019 -8.35998e-019 0 -2.97495e-019 0 -8.14389e-019 0 4.20729e-019 0 -4.91774e-019 -9.1656e-019 -1.04068e-018 -8.14389e-019 -1.74309e-018 -8.31434e-019 -1.36918e-018 -6.41509e-019 -9.1656e-019 0 -8.14389e-019 0 -8.31434e-019 0 -6.41509e-019 0 -1.04068e-018 -8.14389e-019 -1.44872e-018 4.20729e-019 -1.36918e-018 -6.41509e-019 -1.76666e-018 8.78365e-019 -8.14389e-019 0 4.20729e-019 0 -6.41509e-019 0 8.78365e-019 0 0 0 0 0 0 1.12594e-019 0 7.66339e-020 0 0 0 0 1.12594e-019 1.74294e-019 7.66339e-020 5.51203e-019 0 0 0 0 0 7.66339e-020 0 -9.26062e-019 0 0 0 0 7.66339e-020 5.51203e-019 -9.26062e-019 -2.50894e-018 0 1.12594e-019 0 7.66339e-020 0 7.9452e-019 0 1.60531e-019 1.12594e-019 1.74294e-019 7.66339e-020 5.51203e-019 7.9452e-019 5.82771e-019 1.60531e-019 1.05058e-018 0 7.66339e-020 0 -9.26062e-019 0 1.60531e-019 0 -4.25311e-019 7.66339e-020 5.51203e-019 -9.26062e-019 -2.50894e-018 1.60531e-019 1.05058e-018 -4.25311e-019 -1.69553e-018 0 0 0 0 1.74294e-019 9.55594e-019 5.51203e-019 6.24786e-019 0 0 0 0 9.55594e-019 1.63336e-018 6.24786e-019 6.97857e-019 0 0 0 0 5.51203e-019 6.24786e-019 -2.50894e-018 -6.80839e-019 0 0 0 0 6.24786e-019 6.97857e-019 -6.80839e-019 1.10553e-018 1.74294e-019 9.55594e-019 5.51203e-019 6.24786e-019 5.82771e-019 -6.08549e-020 1.05058e-018 1.65299e-018 9.55594e-019 1.63336e-018 6.24786e-019 6.97857e-019 -6.08549e-020 7.6906e-019 1.65299e-018 1.71873e-019 5.51203e-019 6.24786e-019 -2.50894e-018 -6.80839e-019 1.05058e-018 1.65299e-018 -1.69553e-018 -1.94835e-018 6.24786e-019 6.97857e-019 -6.80839e-019 1.10553e-018 1.65299e-018 1.71873e-019 -1.94835e-018 -8.73905e-020 0 0 0 0 0 -9.26062e-019 0 7.65009e-019 0 0 0 0 -9.26062e-019 -2.50894e-018 7.65009e-019 -7.25455e-020 0 0 0 0 0 7.65009e-019 0 -9.49246e-020 0 0 0 0 7.65009e-019 -7.25455e-020 -9.49246e-020 -3.01613e-019 0 -9.26062e-019 0 7.65009e-019 0 -4.25311e-019 0 -4.03066e-019 -9.26062e-019 -2.50894e-018 7.65009e-019 -7.25455e-020 -4.25311e-019 -1.69553e-018 -4.03066e-019 -1.82512e-018 0 7.65009e-019 0 -9.49246e-020 0 -4.03066e-019 0 1.06909e-018 7.65009e-019 -7.25455e-020 -9.49246e-020 -3.01613e-019 -4.03066e-019 -1.82512e-018 1.06909e-018 2.17631e-019 0 0 0 0 -2.50894e-018 -6.80839e-019 -7.25455e-020 -1.61747e-018 0 0 0 0 -6.80839e-019 1.10553e-018 -1.61747e-018 -2.77514e-019 0 0 0 0 -7.25455e-020 -1.61747e-018 -3.01613e-019 -6.20365e-019 0 0 0 0 -1.61747e-018 -2.77514e-019 -6.20365e-019 -1.11942e-018 -2.50894e-018 -6.80839e-019 -7.25455e-020 -1.61747e-018 -1.69553e-018 -1.94835e-018 -1.82512e-018 -2.05844e-018 -6.80839e-019 1.10553e-018 -1.61747e-018 -2.77514e-019 -1.94835e-018 -8.73905e-020 -2.05844e-018 -9.6613e-020 -7.25455e-020 -1.61747e-018 -3.01613e-019 -6.20365e-019 -1.82512e-018 -2.05844e-018 2.17631e-019 -3.48226e-018 -1.61747e-018 -2.77514e-019 -6.20365e-019 -1.11942e-018 -2.05844e-018 -9.6613e-020 -3.48226e-018 -2.25094e-018 0 7.9452e-019 0 1.60531e-019 0 5.67764e-020 0 -6.4824e-019 7.9452e-019 5.82771e-019 1.60531e-019 1.05058e-018 5.67764e-020 -3.53885e-019 -6.4824e-019 8.23275e-019 0 1.60531e-019 0 -4.25311e-019 0 -6.4824e-019 0 -5.40165e-019 1.60531e-019 1.05058e-018 -4.25311e-019 -1.69553e-018 -6.4824e-019 8.23275e-019 -5.40165e-019 -1.33488e-018 0 5.67764e-020 0 -6.4824e-019 0 -9.94516e-019 0 -1.20356e-018 5.67764e-020 -3.53885e-019 -6.4824e-019 8.23275e-019 -9.94516e-019 -2.86061e-019 -1.20356e-018 2.43525e-020 0 -6.4824e-019 0 -5.40165e-019 0 -1.20356e-018 0 -8.54889e-019 -6.4824e-019 8.23275e-019 -5.40165e-019 -1.33488e-018 -1.20356e-018 2.43525e-020 -8.54889e-019 -1.1737e-018 5.82771e-019 -6.08549e-020 1.05058e-018 1.65299e-018 -3.53885e-019 8.96028e-019 8.23275e-019 9.06656e-019 -6.08549e-020 7.6906e-019 1.65299e-018 1.71873e-019 8.96028e-019 -8.85276e-019 9.06656e-019 -1.21899e-018 1.05058e-018 1.65299e-018 -1.69553e-018 -1.94835e-018 8.23275e-019 9.06656e-019 -1.33488e-018 -1.19797e-018 1.65299e-018 1.71873e-019 -1.94835e-018 -8.73905e-020 9.06656e-019 -1.21899e-018 -1.19797e-018 -2.42363e-018 -3.53885e-019 8.96028e-019 8.23275e-019 9.06656e-019 -2.86061e-019 1.45826e-018 2.43525e-020 5.64459e-019 8.96028e-019 -8.85276e-019 9.06656e-019 -1.21899e-018 1.45826e-018 -1.43791e-018 5.64459e-019 -2.71495e-018 8.23275e-019 9.06656e-019 -1.33488e-018 -1.19797e-018 2.43525e-020 5.64459e-019 -1.1737e-018 -2.61167e-018 9.06656e-019 -1.21899e-018 -1.19797e-018 -2.42363e-018 5.64459e-019 -2.71495e-018 -2.61167e-018 -4.27275e-018 0 -4.25311e-019 0 -4.03066e-019 0 -5.40165e-019 0 -9.2618e-019 -4.25311e-019 -1.69553e-018 -4.03066e-019 -1.82512e-018 -5.40165e-019 -1.33488e-018 -9.2618e-019 -1.81859e-018 0 -4.03066e-019 0 1.06909e-018 0 -9.2618e-019 0 -1.18469e-018 -4.03066e-019 -1.82512e-018 1.06909e-018 2.17631e-019 -9.2618e-019 -1.81859e-018 -1.18469e-018 -1.62441e-018 0 -5.40165e-019 0 -9.2618e-019 0 -8.54889e-019 0 -1.89188e-018 -5.40165e-019 -1.33488e-018 -9.2618e-019 -1.81859e-018 -8.54889e-019 -1.1737e-018 -1.89188e-018 -3.67572e-018 0 -9.2618e-019 0 -1.18469e-018 0 -1.89188e-018 0 -1.60782e-018 -9.2618e-019 -1.81859e-018 -1.18469e-018 -1.62441e-018 -1.89188e-018 -3.67572e-018 -1.60782e-018 -1.83564e-018 -1.69553e-018 -1.94835e-018 -1.82512e-018 -2.05844e-018 -1.33488e-018 -1.19797e-018 -1.81859e-018 -1.51342e-018 -1.94835e-018 -8.73905e-020 -2.05844e-018 -9.6613e-020 -1.19797e-018 -2.42363e-018 -1.51342e-018 -2.20533e-018 -1.82512e-018 -2.05844e-018 2.17631e-019 -3.48226e-018 -1.81859e-018 -1.51342e-018 -1.62441e-018 -3.59244e-018 -2.05844e-018 -9.6613e-020 -3.48226e-018 -2.25094e-018 -1.51342e-018 -2.20533e-018 -3.59244e-018 -2.12287e-018 -1.33488e-018 -1.19797e-018 -1.81859e-018 -1.51342e-018 -1.1737e-018 -2.61167e-018 -3.67572e-018 -2.74418e-018 -1.19797e-018 -2.42363e-018 -1.51342e-018 -2.20533e-018 -2.61167e-018 -4.27275e-018 -2.74418e-018 -3.12068e-018 -1.81859e-018 -1.51342e-018 -1.62441e-018 -3.59244e-018 -3.67572e-018 -2.74418e-018 -1.83564e-018 -4.69286e-018 -1.51342e-018 -2.20533e-018 -3.59244e-018 -2.12287e-018 -2.74418e-018 -3.12068e-018 -4.69286e-018 -3.72301e-018 0 0 0 0 1.63336e-018 3.63072e-019 6.97857e-019 -9.59993e-019 0 0 0 0 3.63072e-019 -1.49434e-018 -9.59993e-019 -1.08177e-018 0 0 0 0 6.97857e-019 -9.59993e-019 1.10553e-018 -5.83842e-019 0 0 0 0 -9.59993e-019 -1.08177e-018 -5.83842e-019 -5.92754e-019 1.63336e-018 3.63072e-019 6.97857e-019 -9.59993e-019 7.6906e-019 -4.8315e-019 1.71873e-019 -2.62896e-018 3.63072e-019 -1.49434e-018 -9.59993e-019 -1.08177e-018 -4.8315e-019 -2.54415e-018 -2.62896e-018 -1.58913e-018 6.97857e-019 -9.59993e-019 1.10553e-018 -5.83842e-019 1.71873e-019 -2.62896e-018 -8.73905e-020 -4.02853e-019 -9.59993e-019 -1.08177e-018 -5.83842e-019 -5.92754e-019 -2.62896e-018 -1.58913e-018 -4.02853e-019 -6.77602e-019 0 0 0 0 -1.49434e-018 -1.11855e-018 -1.08177e-018 1.96546e-019 0 0 0 0 -1.11855e-018 0 1.96546e-019 0 0 0 0 0 -1.08177e-018 1.96546e-019 -5.92754e-019 6.17839e-019 0 0 0 0 1.96546e-019 0 6.17839e-019 0 -1.49434e-018 -1.11855e-018 -1.08177e-018 1.96546e-019 -2.54415e-018 -2.97495e-019 -1.58913e-018 1.20251e-019 -1.11855e-018 0 1.96546e-019 0 -2.97495e-019 0 1.20251e-019 0 -1.08177e-018 1.96546e-019 -5.92754e-019 6.17839e-019 -1.58913e-018 1.20251e-019 -6.77602e-019 9.78324e-019 1.96546e-019 0 6.17839e-019 0 1.20251e-019 0 9.78324e-019 0 0 0 0 0 1.10553e-018 -5.83842e-019 -2.77514e-019 -9.55074e-019 0 0 0 0 -5.83842e-019 -5.92754e-019 -9.55074e-019 -2.44016e-018 0 0 0 0 -2.77514e-019 -9.55074e-019 -1.11942e-018 -3.20851e-018 0 0 0 0 -9.55074e-019 -2.44016e-018 -3.20851e-018 -3.36218e-018 1.10553e-018 -5.83842e-019 -2.77514e-019 -9.55074e-019 -8.73905e-020 -4.02853e-019 -9.6613e-020 -3.54857e-019 -5.83842e-019 -5.92754e-019 -9.55074e-019 -2.44016e-018 -4.02853e-019 -6.77602e-019 -3.54857e-019 -1.62335e-018 -2.77514e-019 -9.55074e-019 -1.11942e-018 -3.20851e-018 -9.6613e-020 -3.54857e-019 -2.25094e-018 -9.56353e-019 -9.55074e-019 -2.44016e-018 -3.20851e-018 -3.36218e-018 -3.54857e-019 -1.62335e-018 -9.56353e-019 -4.80817e-018 0 0 0 0 -5.92754e-019 6.17839e-019 -2.44016e-018 -1.53487e-018 0 0 0 0 6.17839e-019 0 -1.53487e-018 0 0 0 0 0 -2.44016e-018 -1.53487e-018 -3.36218e-018 -2.10506e-018 0 0 0 0 -1.53487e-018 0 -2.10506e-018 0 -5.92754e-019 6.17839e-019 -2.44016e-018 -1.53487e-018 -6.77602e-019 9.78324e-019 -1.62335e-018 -1.33086e-018 6.17839e-019 0 -1.53487e-018 0 9.78324e-019 0 -1.33086e-018 0 -2.44016e-018 -1.53487e-018 -3.36218e-018 -2.10506e-018 -1.62335e-018 -1.33086e-018 -4.80817e-018 -4.45791e-018 -1.53487e-018 0 -2.10506e-018 0 -1.33086e-018 0 -4.45791e-018 0 7.6906e-019 -4.8315e-019 1.71873e-019 -2.62896e-018 -8.85276e-019 -2.76115e-018 -1.21899e-018 -3.55582e-018 -4.8315e-019 -2.54415e-018 -2.62896e-018 -1.58913e-018 -2.76115e-018 -1.44872e-018 -3.55582e-018 -2.04951e-018 1.71873e-019 -2.62896e-018 -8.73905e-020 -4.02853e-019 -1.21899e-018 -3.55582e-018 -2.42363e-018 -2.22674e-018 -2.62896e-018 -1.58913e-018 -4.02853e-019 -6.77602e-019 -3.55582e-018 -2.04951e-018 -2.22674e-018 -4.87405e-019 -8.85276e-019 -2.76115e-018 -1.21899e-018 -3.55582e-018 -1.43791e-018 -3.53053e-018 -2.71495e-018 -4.5718e-018 -2.76115e-018 -1.44872e-018 -3.55582e-018 -2.04951e-018 -3.53053e-018 -1.76666e-018 -4.5718e-018 -2.01195e-018 -1.21899e-018 -3.55582e-018 -2.42363e-018 -2.22674e-018 -2.71495e-018 -4.5718e-018 