# vtk DataFile Version 3.0
#This file was generated by the deal.II library on 2015/5/9 at 11:10:40
ASCII
DATASET UNSTRUCTURED_GRID

POINTS 4096 double
0 0 0
0.03125 0 0
0 0.03125 0
0.03125 0.03125 0
0.03125 0 0
0.0625 0 0
0.03125 0.03125 0
0.0625 0.03125 0
0 0.03125 0
0.03125 0.03125 0
0 0.0625 0
0.03125 0.0625 0
0.03125 0.03125 0
0.0625 0.03125 0
0.03125 0.0625 0
0.0625 0.0625 0
0.0625 0 0
0.09375 0 0
0.0625 0.03125 0
0.09375 0.03125 0
0.09375 0 0
0.125 0 0
0.09375 0.03125 0
0.125 0.03125 0
0.0625 0.03125 0
0.09375 0.03125 0
0.0625 0.0625 0
0.09375 0.0625 0
0.09375 0.03125 0
0.125 0.03125 0
0.09375 0.0625 0
0.125 0.0625 0
0 0.0625 0
0.03125 0.0625 0
0 0.09375 0
0.03125 0.09375 0
0.03125 0.0625 0
0.0625 0.0625 0
0.03125 0.09375 0
0.0625 0.09375 0
0 0.09375 0
0.03125 0.09375 0
0 0.125 0
0.03125 0.125 0
0.03125 0.09375 0
0.0625 0.09375 0
0.03125 0.125 0
0.0625 0.125 0
0.0625 0.0625 0
0.09375 0.0625 0
0.0625 0.09375 0
0.09375 0.09375 0
0.09375 0.0625 0
0.125 0.0625 0
0.09375 0.09375 0
0.125 0.09375 0
0.0625 0.09375 0
0.09375 0.09375 0
0.0625 0.125 0
0.09375 0.125 0
0.09375 0.09375 0
0.125 0.09375 0
0.09375 0.125 0
0.125 0.125 0
0.125 0 0
0.15625 0 0
0.125 0.03125 0
0.15625 0.03125 0
0.15625 0 0
0.1875 0 0
0.15625 0.03125 0
0.1875 0.03125 0
0.125 0.03125 0
0.15625 0.03125 0
0.125 0.0625 0
0.15625 0.0625 0
0.15625 0.03125 0
0.1875 0.03125 0
0.15625 0.0625 0
0.1875 0.0625 0
0.1875 0 0
0.21875 0 0
0.1875 0.03125 0
0.21875 0.03125 0
0.21875 0 0
0.25 0 0
0.21875 0.03125 0
0.25 0.03125 0
0.1875 0.03125 0
0.21875 0.03125 0
0.1875 0.0625 0
0.21875 0.0625 0
0.21875 0.03125 0
0.25 0.03125 0
0.21875 0.0625 0
0.25 0.0625 0
0.125 0.0625 0
0.15625 0.0625 0
0.125 0.09375 0
0.15625 0.09375 0
0.15625 0.0625 0
0.1875 0.0625 0
0.15625 0.09375 0
0.1875 0.09375 0
0.125 0.09375 0
0.15625 0.09375 0
0.125 0.125 0
0.15625 0.125 0
0.15625 0.09375 0
0.1875 0.09375 0
0.15625 0.125 0
0.1875 0.125 0
0.1875 0.0625 0
0.21875 0.0625 0
0.1875 0.09375 0
0.21875 0.09375 0
0.21875 0.0625 0
0.25 0.0625 0
0.21875 0.09375 0
0.25 0.09375 0
0.1875 0.09375 0
0.21875 0.09375 0
0.1875 0.125 0
0.21875 0.125 0
0.21875 0.09375 0
0.25 0.09375 0
0.21875 0.125 0
0.25 0.125 0
0 0.125 0
0.03125 0.125 0
0 0.15625 0
0.03125 0.15625 0
0.03125 0.125 0
0.0625 0.125 0
0.03125 0.15625 0
0.0625 0.15625 0
0 0.15625 0
0.03125 0.15625 0
0 0.1875 0
0.03125 0.1875 0
0.03125 0.15625 0
0.0625 0.15625 0
0.03125 0.1875 0
0.0625 0.1875 0
0.0625 0.125 0
0.09375 0.125 0
0.0625 0.15625 0
0.09375 0.15625 0
0.09375 0.125 0
0.125 0.125 0
0.09375 0.15625 0
0.125 0.15625 0
0.0625 0.15625 0
0.09375 0.15625 0
0.0625 0.1875 0
0.09375 0.1875 0
0.09375 0.15625 0
0.125 0.15625 0
0.09375 0.1875 0
0.125 0.1875 0
0 0.1875 0
0.03125 0.1875 0
0 0.21875 0
0.03125 0.21875 0
0.03125 0.1875 0
0.0625 0.1875 0
0.03125 0.21875 0
0.0625 0.21875 0
0 0.21875 0
0.03125 0.21875 0
0 0.25 0
0.03125 0.25 0
0.03125 0.21875 0
0.0625 0.21875 0
0.03125 0.25 0
0.0625 0.25 0
0.0625 0.1875 0
0.09375 0.1875 0
0.0625 0.21875 0
0.09375 0.21875 0
0.09375 0.1875 0
0.125 0.1875 0
0.09375 0.21875 0
0.125 0.21875 0
0.0625 0.21875 0
0.09375 0.21875 0
0.0625 0.25 0
0.09375 0.25 0
0.09375 0.21875 0
0.125 0.21875 0
0.09375 0.25 0
0.125 0.25 0
0.125 0.125 0
0.15625 0.125 0
0.125 0.15625 0
0.15625 0.15625 0
0.15625 0.125 0
0.1875 0.125 0
0.15625 0.15625 0
0.1875 0.15625 0
0.125 0.15625 0
0.15625 0.15625 0
0.125 0.1875 0
0.15625 0.1875 0
0.15625 0.15625 0
0.1875 0.15625 0
0.15625 0.1875 0
0.1875 0.1875 0
0.1875 0.125 0
0.21875 0.125 0
0.1875 0.15625 0
0.21875 0.15625 0
0.21875 0.125 0
0.25 0.125 0
0.21875 0.15625 0
0.25 0.15625 0
0.1875 0.15625 0
0.21875 0.15625 0
0.1875 0.1875 0
0.21875 0.1875 0
0.21875 0.15625 0
0.25 0.15625 0
0.21875 0.1875 0
0.25 0.1875 0
0.125 0.1875 0
0.15625 0.1875 0
0.125 0.21875 0
0.15625 0.21875 0
0.15625 0.1875 0
0.1875 0.1875 0
0.15625 0.21875 0
0.1875 0.21875 0
0.125 0.21875 0
0.15625 0.21875 0
0.125 0.25 0
0.15625 0.25 0
0.15625 0.21875 0
0.1875 0.21875 0
0.15625 0.25 0
0.1875 0.25 0
0.1875 0.1875 0
0.21875 0.1875 0
0.1875 0.21875 0
0.21875 0.21875 0
0.21875 0.1875 0
0.25 0.1875 0
0.21875 0.21875 0
0.25 0.21875 0
0.1875 0.21875 0
0.21875 0.21875 0
0.1875 0.25 0
0.21875 0.25 0
0.21875 0.21875 0
0.25 0.21875 0
0.21875 0.25 0
0.25 0.25 0
0.25 0 0
0.28125 0 0
0.25 0.03125 0
0.28125 0.03125 0
0.28125 0 0
0.3125 0 0
0.28125 0.03125 0
0.3125 0.03125 0
0.25 0.03125 0
0.28125 0.03125 0
0.25 0.0625 0
0.28125 0.0625 0
0.28125 0.03125 0
0.3125 0.03125 0
0.28125 0.0625 0
0.3125 0.0625 0
0.3125 0 0
0.34375 0 0
0.3125 0.03125 0
0.34375 0.03125 0
0.34375 0 0
0.375 0 0
0.34375 0.03125 0
0.375 0.03125 0
0.3125 0.03125 0
0.34375 0.03125 0
0.3125 0.0625 0
0.34375 0.0625 0
0.34375 0.03125 0
0.375 0.03125 0
0.34375 0.0625 0
0.375 0.0625 0
0.25 0.0625 0
0.28125 0.0625 0
0.25 0.09375 0
0.28125 0.09375 0
0.28125 0.0625 0
0.3125 0.0625 0
0.28125 0.09375 0
0.3125 0.09375 0
0.25 0.09375 0
0.28125 0.09375 0
0.25 0.125 0
0.28125 0.125 0
0.28125 0.09375 0
0.3125 0.09375 0
0.28125 0.125 0
0.3125 0.125 0
0.3125 0.0625 0
0.34375 0.0625 0
0.3125 0.09375 0
0.34375 0.09375 0
0.34375 0.0625 0
0.375 0.0625 0
0.34375 0.09375 0
0.375 0.09375 0
0.3125 0.09375 0
0.34375 0.09375 0
0.3125 0.125 0
0.34375 0.125 0
0.34375 0.09375 0
0.375 0.09375 0
0.34375 0.125 0
0.375 0.125 0
0.375 0 0
0.40625 0 0
0.375 0.03125 0
0.40625 0.03125 0
0.40625 0 0
0.4375 0 0
0.40625 0.03125 0
0.4375 0.03125 0
0.375 0.03125 0
0.40625 0.03125 0
0.375 0.0625 0
0.40625 0.0625 0
0.40625 0.03125 0
0.4375 0.03125 0
0.40625 0.0625 0
0.4375 0.0625 0
0.4375 0 0
0.46875 0 0
0.4375 0.03125 0
0.46875 0.03125 0
0.46875 0 0
0.5 0 0
0.46875 0.03125 0
0.5 0.03125 0
0.4375 0.03125 0
0.46875 0.03125 0
0.4375 0.0625 0
0.46875 0.0625 0
0.46875 0.03125 0
0.5 0.03125 0
0.46875 0.0625 0
0.5 0.0625 0
0.375 0.0625 0
0.40625 0.0625 0
0.375 0.09375 0
0.40625 0.09375 0
0.40625 0.0625 0
0.4375 0.0625 0
0.40625 0.09375 0
0.4375 0.09375 0
0.375 0.09375 0
0.40625 0.09375 0
0.375 0.125 0
0.40625 0.125 0
0.40625 0.09375 0
0.4375 0.09375 0
0.40625 0.125 0
0.4375 0.125 0
0.4375 0.0625 0
0.46875 0.0625 0
0.4375 0.09375 0
0.46875 0.09375 0
0.46875 0.0625 0
0.5 0.0625 0
0.46875 0.09375 0
0.5 0.09375 0
0.4375 0.09375 0
0.46875 0.09375 0
0.4375 0.125 0
0.46875 0.125 0
0.46875 0.09375 0
0.5 0.09375 0
0.46875 0.125 0
0.5 0.125 0
0.25 0.125 0
0.28125 0.125 0
0.25 0.15625 0
0.28125 0.15625 0
0.28125 0.125 0
0.3125 0.125 0
0.28125 0.15625 0
0.3125 0.15625 0
0.25 0.15625 0
0.28125 0.15625 0
0.25 0.1875 0
0.28125 0.1875 0
0.28125 0.15625 0
0.3125 0.15625 0
0.28125 0.1875 0
0.3125 0.1875 0
0.3125 0.125 0
0.34375 0.125 0
0.3125 0.15625 0
0.34375 0.15625 0
0.34375 0.125 0
0.375 0.125 0
0.34375 0.15625 0
0.375 0.15625 0
0.3125 0.15625 0
0.34375 0.15625 0
0.3125 0.1875 0
0.34375 0.1875 0
0.34375 0.15625 0
0.375 0.15625 0
0.34375 0.1875 0
0.375 0.1875 0
0.25 0.1875 0
0.28125 0.1875 0
0.25 0.21875 0
0.28125 0.21875 0
0.28125 0.1875 0
0.3125 0.1875 0
0.28125 0.21875 0
0.3125 0.21875 0
0.25 0.21875 0
0.28125 0.21875 0
0.25 0.25 0
0.28125 0.25 0
0.28125 0.21875 0
0.3125 0.21875 0
0.28125 0.25 0
0.3125 0.25 0
0.3125 0.1875 0
0.34375 0.1875 0
0.3125 0.21875 0
0.34375 0.21875 0
0.34375 0.1875 0
0.375 0.1875 0
0.34375 0.21875 0
0.375 0.21875 0
0.3125 0.21875 0
0.34375 0.21875 0
0.3125 0.25 0
0.34375 0.25 0
0.34375 0.21875 0
0.375 0.21875 0
0.34375 0.25 0
0.375 0.25 0
0.375 0.125 0
0.40625 0.125 0
0.375 0.15625 0
0.40625 0.15625 0
0.40625 0.125 0
0.4375 0.125 0
0.40625 0.15625 0
0.4375 0.15625 0
0.375 0.15625 0
0.40625 0.15625 0
0.375 0.1875 0
0.40625 0.1875 0
0.40625 0.15625 0
0.4375 0.15625 0
0.40625 0.1875 0
0.4375 0.1875 0
0.4375 0.125 0
0.46875 0.125 0
0.4375 0.15625 0
0.46875 0.15625 0
0.46875 0.125 0
0.5 0.125 0
0.46875 0.15625 0
0.5 0.15625 0
0.4375 0.15625 0
0.46875 0.15625 0
0.4375 0.1875 0
0.46875 0.1875 0
0.46875 0.15625 0
0.5 0.15625 0
0.46875 0.1875 0
0.5 0.1875 0
0.375 0.1875 0
0.40625 0.1875 0
0.375 0.21875 0
0.40625 0.21875 0
0.40625 0.1875 0
0.4375 0.1875 0
0.40625 0.21875 0
0.4375 0.21875 0
0.375 0.21875 0
0.40625 0.21875 0
0.375 0.25 0
0.40625 0.25 0
0.40625 0.21875 0
0.4375 0.21875 0
0.40625 0.25 0
0.4375 0.25 0
0.4375 0.1875 0
0.46875 0.1875 0
0.4375 0.21875 0
0.46875 0.21875 0
0.46875 0.1875 0
0.5 0.1875 0
0.46875 0.21875 0
0.5 0.21875 0
0.4375 0.21875 0
0.46875 0.21875 0
0.4375 0.25 0
0.46875 0.25 0
0.46875 0.21875 0
0.5 0.21875 0
0.46875 0.25 0
0.5 0.25 0
0 0.25 0
0.03125 0.25 0
0 0.28125 0
0.03125 0.28125 0
0.03125 0.25 0
0.0625 0.25 0
0.03125 0.28125 0
0.0625 0.28125 0
0 0.28125 0
0.03125 0.28125 0
0 0.3125 0
0.03125 0.3125 0
0.03125 0.28125 0
0.0625 0.28125 0
0.03125 0.3125 0
0.0625 0.3125 0
0.0625 0.25 0
0.09375 0.25 0
0.0625 0.28125 0
0.09375 0.28125 0
0.09375 0.25 0
0.125 0.25 0
0.09375 0.28125 0
0.125 0.28125 0
0.0625 0.28125 0
0.09375 0.28125 0
0.0625 0.3125 0
0.09375 0.3125 0
0.09375 0.28125 0
0.125 0.28125 0
0.09375 0.3125 0
0.125 0.3125 0
0 0.3125 0
0.03125 0.3125 0
0 0.34375 0
0.03125 0.34375 0
0.03125 0.3125 0
0.0625 0.3125 0
0.03125 0.34375 0
0.0625 0.34375 0
0 0.34375 0
0.03125 0.34375 0
0 0.375 0
0.03125 0.375 0
0.03125 0.34375 0
0.0625 0.34375 0
0.03125 0.375 0
0.0625 0.375 0
0.0625 0.3125 0
0.09375 0.3125 0
0.0625 0.34375 0
0.09375 0.34375 0
0.09375 0.3125 0
0.125 0.3125 0
0.09375 0.34375 0
0.125 0.34375 0
0.0625 0.34375 0
0.09375 0.34375 0
0.0625 0.375 0
0.09375 0.375 0
0.09375 0.34375 0
0.125 0.34375 0
0.09375 0.375 0
0.125 0.375 0
0.125 0.25 0
0.15625 0.25 0
0.125 0.28125 0
0.15625 0.28125 0
0.15625 0.25 0
0.1875 0.25 0
0.15625 0.28125 0
0.1875 0.28125 0
0.125 0.28125 0
0.15625 0.28125 0
0.125 0.3125 0
0.15625 0.3125 0
0.15625 0.28125 0
0.1875 0.28125 0
0.15625 0.3125 0
0.1875 0.3125 0
0.1875 0.25 0
0.21875 0.25 0
0.1875 0.28125 0
0.21875 0.28125 0
0.21875 0.25 0
0.25 0.25 0
0.21875 0.28125 0
0.25 0.28125 0
0.1875 0.28125 0
0.21875 0.28125 0
0.1875 0.3125 0
0.21875 0.3125 0
0.21875 0.28125 0
0.25 0.28125 0
0.21875 0.3125 0
0.25 0.3125 0
0.125 0.3125 0
0.15625 0.3125 0
0.125 0.34375 0
0.15625 0.34375 0
0.15625 0.3125 0
0.1875 0.3125 0
0.15625 0.34375 0
0.1875 0.34375 0
0.125 0.34375 0
[...]
POINT_DATA 4096
SCALARS solution_0 double 1
LOOKUP_TABLE default
0 0 0.00234375 0.00106515 0 0 0.00106515 0.00139521 0.00234375 0.00106515 0.004375 0.0026069 0.00106515 0.00139521 0.0026069 0.00293499 0 0 0.00139521 0.00133394 0 0 0.00133394 0.0013514 0.00139521 0.00133394 0.00293499 0.00271971 0.00133394 0.0013514 0.00271971 0.00265743 0.004375 0.0026069 0.00609375 0.00406992 0.0026069 0.00293499 0.00406992 0.00439022 0.00609375 0.00406992 0.0075 0.00532262 0.00406992 0.00439022 0.00532262 0.00564141 0.00293499 0.00271971 0.00439022 0.00404486 0.00271971 0.00265743 0.00404486 0.0038761 0.00439022 0.00404486 0.00564141 0.00520598 0.00404486 0.0038761 0.00520598 0.004946 0 0 0.0013514 0.00131433 0 0 0.00131433 0.00126288 0.0013514 0.00131433 0.00265743 0.00253804 0.00131433 0.00126288 0.00253804 0.00241194 0 0 0.00126288 0.00119489 0 0 0.00119489 0.00111873 0.00126288 0.00119489 0.00241194 0.00226904 0.00119489 0.00111873 0.00226904 0.00211882 0.00265743 0.00253804 0.0038761 0.00365662 0.00253804 0.00241194 0.00365662 0.00344319 0.0038761 0.00365662 0.004946 0.00463328 0.00365662 0.00344319 0.00463328 0.00433568 0.00241194 0.00226904 0.00344319 0.00322117 0.00226904 0.00211882 0.00322117 0.00299845 0.00344319 0.00322117 0.00433568 0.00403842 0.00322117 0.00299845 0.00403842 0.00374885 0.0075 0.00532262 0.00859375 0.0063198 0.00532262 0.00564141 0.0063198 0.0066394 0.00859375 0.0063198 0.009375 0.00704548 0.0063198 0.0066394 0.00704548 0.00736453 0.00564141 0.00520598 0.0066394 0.00614561 0.00520598 0.004946 0.00614561 0.00581858 0.0066394 0.00614561 0.00736453 0.00683483 0.00614561 0.00581858 0.00683483 0.00646362 0.009375 0.00704548 0.00984375 0.00749286 0.00704548 0.00736453 0.00749286 0.00780887 0.00984375 0.00749286 0.01 0.00765968 0.00749286 0.00780887 0.00765968 0.00796994 0.00736453 0.00683483 0.00780887 0.00726044 0.00683483 0.00646362 0.00726044 0.00686491 0.00780887 0.00726044 0.00796994 0.00741769 0.00726044 0.00686491 0.00741769 0.007016 0.004946 0.00463328 0.00581858 0.00543195 0.00463328 0.00433568 0.00543195 0.00506435 0.00581858 0.00543195 0.00646362 0.00602585 0.00543195 0.00506435 0.00602585 0.00560806 0.00433568 0.00403842 0.00506435 0.00470367 0.00403842 0.00374885 0.00470367 0.00435814 0.00506435 0.00470367 0.00560806 0.00520123 0.00470367 0.00435814 0.00520123 0.00481504 0.00646362 0.00602585 0.00686491 0.00639877 0.00602585 0.00560806 0.00639877 0.00595279 0.00686491 0.00639877 0.007016 0.00654376 0.00639877 0.00595279 0.00654376 0.00609243 0.00560806 0.00520123 0.00595279 0.00552017 0.00520123 0.00481504 0.00552017 0.00511162 0.00595279 0.00552017 0.00609243 0.00565593 0.00552017 0.00511162 0.00565593 0.00524507 0 0 0.00111873 0.00103853 0 0 0.00103853 0.000957978 0.00111873 0.00103853 0.00211882 0.00196567 0.00103853 0.000957978 0.00196567 0.00181435 0 0 0.000957978 0.000879506 0 0 0.000879506 0.000804791 0.000957978 0.000879506 0.00181435 0.00166812 0.000879506 0.000804791 0.00166812 0.00152938 0.00211882 0.00196567 0.00299845 0.00277803 0.00196567 0.00181435 0.00277803 0.00256403 0.00299845 0.00277803 0.00374885 0.00346862 0.00277803 0.00256403 0.00346862 0.00320065 0.00181435 0.00166812 0.00256403 0.00235936 0.00166812 0.00152938 0.00235936 0.00216622 0.00256403 0.00235936 0.00320065 0.00294694 0.00235936 0.00216622 0.00294694 0.00270896 0 0 0.000804791 0.000734875 0 0 0.000734875 0.000670356 0.000804791 0.000734875 0.00152938 0.00139962 0.000734875 0.000670356 0.00139962 0.00127972 0 0 0.000670356 0.000611518 0 0 0.000611518 0.000558443 0.000670356 0.000611518 0.00127972 0.0011701 0.000611518 0.000558443 0.0011701 0.00107086 0.00152938 0.00139962 0.00216622 0.00198601 0.00139962 0.00127972 0.00198601 0.00181952 0.00216622 0.00198601 0.00270896 0.00248758 0.00198601 0.00181952 0.00248758 0.00228319 0.00127972 0.0011701 0.00181952 0.00166704 0.0011701 0.00107086 0.00166704 0.00152856 0.00181952 0.00166704 0.00228319 0.00209578 0.00166704 0.00152856 0.00209578 0.00192509 0.00374885 0.00346862 0.00435814 0.00402876 0.00346862 0.00320065 0.00402876 0.00371744 0.00435814 0.00402876 0.00481504 0.00445039 0.00402876 0.00371744 0.00445039 0.00410852 0.00320065 0.00294694 0.00371744 0.00342514 0.00294694 0.00270896 0.00342514 0.00315243 0.00371744 0.00342514 0.00410852 0.0037895 0.00342514 0.00315243 0.0037895 0.00349305 0.00481504 0.00445039 0.00511162 0.00472809 0.00445039 0.00410852 0.00472809 0.00437033 0.00511162 0.00472809 0.00524507 0.00486056 0.00472809 0.00437033 0.00486056 0.00450272 0.00410852 0.0037895 0.00437033 0.00403773 0.0037895 0.00349305 0.00403773 0.00372933 0.00437033 0.00403773 0.00450272 0.00417045 0.00403773 0.00372933 0.00417045 0.00386236 0.00270896 0.00248758 0.00315243 0.00289946 0.00248758 0.00228319 0.00289946 0.00266607 0.00315243 0.00289946 0.00349305 0.0032186 0.00289946 0.00266607 0.0032186 0.00296541 0.00228319 0.00209578 0.00266607 0.00245182 0.00209578 0.00192509 0.00245182 0.0022561 0.00266607 0.00245182 0.00296541 0.00273261 0.00245182 0.0022561 0.00273261 0.00251924 0.00349305 0.0032186 0.00372933 0.00344398 0.0032186 0.00296541 0.00344398 0.00318047 0.00372933 0.00344398 0.00386236 0.00357692 0.00344398 0.00318047 0.00357692 0.00331265 0.00296541 0.00273261 0.00318047 0.00293757 0.00273261 0.00251924 0.00293757 0.00271405 0.00318047 0.00293757 0.00331265 0.00306809 0.00293757 0.00271405 0.00306809 0.00284189 0.01 0.00765968 0.00984375 0.00754626 0.00765968 0.00796994 0.00754626 0.00784845 0.00984375 0.00754626 0.009375 0.00715525 0.00754626 0.00784845 0.00715525 0.00744808 0.00796994 0.00741769 0.00784845 0.00730746 0.00741769 0.007016 0.00730746 0.00691782 0.00784845 0.00730746 0.00744808 0.00693574 0.00730746 0.00691782 0.00693574 0.0065783 0.009375 0.00715525 0.00859375 0.00649209 0.00715525 0.00744808 0.00649209 0.00677647 0.00859375 0.00649209 0.0075 0.00556694 0.00649209 0.00677647 0.00556694 0.00584815 0.00744808 0.00693574 0.00677647 0.00631508 0.00693574 0.0065783 0.00631508 0.00601386 0.00677647 0.00631508 0.00584815 0.0054685 0.00631508 0.00601386 0.0054685 0.00525272 0.007016 0.00654376 0.00691782 0.00646203 0.00654376 0.00609243 0.00646203 0.00602878 0.00691782 0.00646203 0.0065783 0.00616292 0.00646203 0.00602878 0.00616292 0.00577181 0.00609243 0.00565593 0.00602878 0.00561103 0.00565593 0.00524507 0.00561103 0.00521858 0.00602878 0.00561103 0.00577181 0.00539554 0.00561103 0.00521858 0.00539554 0.00504191 0.0065783 0.00616292 0.00601386 0.00566498 0.00616292 0.00577181 0.00566498 0.00534045 0.00601386 0.00566498 0.00525272 0.00499827 0.00566498 0.00534045 0.00499827 0.00476372 0.00577181 0.00539554 0.00534045 0.00502753 0.00539554 0.00504191 0.00502753 0.00473165 0.00534045 0.00502753 0.00476372 0.00453346 0.00502753 0.00473165 0.00453346 0.00431109 0.0075 0.00556694 0.00609375 0.00439924 0.00556694 0.00584815 0.00439924 0.00469139 0.00609375 0.00439924 0.004375 0.00303065 0.00439924 0.00469139 0.00303065 0.00336463 0.00584815 0.0054685 0.00469139 0.00443713 0.0054685 0.00525272 0.00443713 0.00434047 0.00469139 0.00443713 0.00336463 0.00329372 0.00443713 0.00434047 0.00329372 0.00334624 0.004375 0.00303065 0.00234375 0.00156651 0.00303065 0.00336463 0.00156651 0.00199355 0.00234375 0.00156651 0 0.000310211 0.00156651 0.00199355 0.000310211 0.000831418 0.00336463 0.00329372 0.00199355 0.00215879 0.00329372 0.00334624 0.00215879 0.00236337 0.00199355 0.00215879 0.000831418 0.00118493 0.00215879 0.00236337 0.00118493 0.00149315 0.00525272 0.00499827 0.00434047 0.00420711 0.00499827 0.00476372 0.00420711 0.0040815 0.00434047 0.00420711 0.00334624 0.0033515 0.00420711 0.0040815 0.0033515 0.00334358 0.00476372 0.00453346 0.0040815 0.0039478 0.00453346 0.00431109 0.0039478 0.00380942 0.0040815 0.0039478 0.00334358 0.00331129 0.0039478 0.00380942 0.00331129 0.00325991 0.00334624 0.0033515 0.00236337 0.00250324 0.0033515 0.00334358 0.00250324 0.00260507 0.00236337 0.00250324 0.00149315 0.00173239 0.00250324 0.00260507 0.00173239 0.00191762 0.00334358 0.00331129 0.00260507 0.00266706 0.00331129 0.00325991 0.00266706 0.00269682 0.00260507 0.00266706 0.00191762 0.00205468 0.00266706 0.00269682 0.00205468 0.00215147 0.00524507 0.00486056 0.00521858 0.0048515 0.00486056 0.00450272 0.0048515 0.0045097 0.00521858 0.0048515 0.00504191 0.00471015 0.0048515 0.0045097 0.00471015 0.00439982 0.00450272 0.00417045 0.0045097 0.00419177 0.00417045 0.00386236 0.00419177 0.00389616 0.0045097 0.00419177 0.00439982 0.00410951 0.00419177 0.00389616 0.00410951 0.00383783 0.00504191 0.00471015 0.00473165 0.00445135 0.00471015 0.00439982 0.00445135 0.00418619 0.00473165 0.00445135 0.00431109 0.00409523 0.00445135 0.00418619 0.00409523 0.00388606 0.00439982 0.00410951 0.00418619 0.00393517 0.00410951 0.00383783 0.00393517 0.0036974 0.00418619 0.00393517 0.00388606 0.00368348 0.00393517 0.0036974 0.00368348 0.00348748 0.00386236 0.00357692 0.00389616 0.00362125 0.00357692 0.00331265 0.00362125 0.00336551 0.00389616 0.00362125 0.00383783 0.00358335 0.00362125 0.00336551 0.00358335 0.00334478 0.00331265 0.00306809 0.00336551 0.00312749 0.00306809 0.00284189 0.00312749 0.00290585 0.00336551 0.00312749 0.00334478 0.00312089 0.00312749 0.00290585 0.00312089 0.00291057 0.00383783 0.00358335 0.0036974 0.00347199 0.00358335 0.00334478 0.00347199 0.00325815 0.0036974 0.00347199 0.00348748 0.003298 0.00347199 0.00325815 0.003298 0.00311495 0.00334478 0.00312089 0.00325815 0.00305508 0.00312089 0.00291057 0.00305508 0.00286205 0.00325815 0.00305508 0.00311495 0.00293815 0.00305508 0.00286205 0.00293815 0.00276737 0.00431109 0.00409523 0.00380942 0.00366629 0.00409523 0.00388606 0.00366629 0.00351997 0.00380942 0.00366629 0.00325991 0.00319181 0.00366629 0.00351997 0.00319181 0.00311038 0.00388606 0.00368348 0.00351997 0.00337168 0.00368348 0.00348748 0.00337168 0.00322262 0.00351997 0.00337168 0.00311038 0.00301844 0.00337168 0.00322262 0.00301844 0.00291842 0.00325991 0.00319181 0.00269682 0.00269942 0.00319181 0.00311038 0.00269942 0.00267991 0.00269682 0.00269942 0.00215147 0.00221446 0.00269942 0.00267991 0.00221446 0.00224942 0.00311038 0.00301844 0.00267991 0.00264246 0.00301844 0.00291842 0.00264246 0.00259054 0.00267991 0.00264246 0.00224942 0.00226114 0.00264246 0.00259054 0.00226114 0.00225363 0.00348748 0.003298 0.00322262 0.00307372 0.003298 0.00311495 0.00307372 0.00292573 0.00322262 0.00307372 0.00291842 0.00281231 0.00307372 0.00292573 0.00281231 0.00270168 0.00311495 0.00293815 0.00292573 0.00277918 0.00293815 0.00276737 0.00277918 0.00263439 0.00292573 0.00277918 0.00270168 0.00258773 0.00277918 0.00263439 0.00258773 0.00247138 0.00291842 0.00281231 0.00259054 0.00252697 0.00281231 0.00270168 0.00252697 0.00245401 0.00259054 0.00252697 0.00225363 0.00223016 0.00252697 0.00245401 0.00223016 0.00219338 0.00270168 0.00258773 0.00245401 0.00237342 0.00258773 0.00247138 0.00237342 0.00228659 0.00245401 0.00237342 0.00219338 0.00214542 0.00237342 0.00228659 0.00214542 0.00208796 0 0 0.000558443 0.000511095 0 0 0.000511095 0.000469379 0.000558443 0.000511095 0.00107086 0.000981888 0.000511095 0.000469379 0.000981888 0.000902999 0 0 0.000469379 0.0004332 0 0 0.0004332 0.000402491 0.000469379 0.0004332 0.000902999 0.000833969 0.0004332 0.000402491 0.000833969 0.000774607 0.00107086 0.000981888 0.00152856 0.00140383 0.000981888 0.000902999 0.00140383 0.0012925 0.00152856 0.00140383 0.00192509 0.00177064 0.00140383 0.0012925 0.00177064 0.00163186 0.000902999 0.000833969 0.0012925 0.00119418 0.000833969 0.000774607 0.00119418 0.00110846 0.0012925 0.00119418 0.00163186 0.00150813 0.00119418 0.00110846 0.00150813 0.0013988 0 0 0.000402491 0.000377258 0 0 0.000377258 0.000357595 0.000402491 0.000377258 0.000774607 0.000724789 0.000377258 0.000357595 0.000724789 0.000684481 0 0 0.000357595 0.000343728 0 0 0.000343728 0.000336006 0.000357595 0.000343728 0.000684481 0.00065376 0.000343728 0.000336006 0.00065376 0.000632733 0.000774607 0.000724789 0.00110846 0.00103498 0.000724789 0.000684481 0.00103498 0.000973408 0.00110846 0.00103498 0.0013988 0.0013032 0.00103498 0.000973408 0.0013032 0.00122061 0.000684481 0.00065376 0.000973408 0.000923407 0.00065376 0.000632733 0.000923407 0.000884506 0.000973408 0.000923407 0.00122061 0.00115023 0.000923407 0.000884506 0.00115023 0.00109097 0.00192509 0.00177064 0.0022561 0.00207818 0.00177064 0.00163186 0.00207818 0.00191723 0.0022561 0.00207818 0.00251924 0.0023243 0.00207818 0.00191723 0.0023243 0.00214673 0.00163186 0.00150813 0.00191723 0.00177238 0.00150813 0.0013988 0.00177238 0.00164273 0.00191723 0.00177238 0.00214673 0.00198545 0.00177238 0.00164273 0.00198545 0.00183936 0.00251924 0.0023243 0.00271405 0.00250869 0.0023243 0.00214673 0.00250869 0.00232028 0.00271405 0.00250869 0.00284189 0.00263273 0.00250869 0.00232028 0.00263273 0.00243934 0.00214673 0.00198545 0.00232028 0.00214759 0.00198545 0.00183936 0.00214759 0.00198938 0.00232028 0.00214759 0.00243934 0.00226044 0.00214759 0.00198938 0.00226044 0.00209477 0.0013988 0.0013032 0.00164273 0.00152732 0.0013032 0.00122061 0.00152732 0.0014251 0.00164273 0.00152732 0.00183936 0.00170725 0.00152732 0.0014251 0.00170725 0.00158786 0.00122061 0.00115023 0.0014251 0.00133486 0.00115023 0.00109097 0.00133486 0.00125505 0.0014251 0.00133486 0.00158786 0.00147972 0.00133486 0.00125505 0.00147972 0.00138113 0.00183936 0.00170725 0.00198938 0.00184436 0.00170725 0.00158786 0.00184436 0.00171112 0.00198938 0.00184436 0.00209477 0.00194103 0.00184436 0.00171112 0.00194103 0.00179789 0.00158786 0.00147972 0.00171112 0.0015882 0.00147972 0.00138113 0.0015882 0.00147393 0.00171112 0.0015882 0.00179789 0.00166397 0.0015882 0.00147393 0.00166397 0.00153787 0 0 0.000336006 0.000335038 0 0 0.000335038 0.000341248 0.000336006 0.000335038 0.000632733 0.000621659 0.000335038 0.000341248 0.000621659 0.000620006 0 0 0.000341248 0.000356545 0 0 0.000356545 0.000377459 0.000341248 0.000356545 0.000620006 0.00062881 0.000356545 0.000377459 0.00062881 0.000639344 0.000632733 0.000621659 0.000884506 0.00085613 0.000621659 0.000620006 0.00085613 0.000836432 0.000884506 0.00085613 0.00109097 0.00104148 0.00085613 0.000836432 0.00104148 0.000998952 0.000620006 0.00062881 0.000836432 0.000824862 0.00062881 0.000639344 0.000824862 0.000809627 0.000836432 0.000824862 0.000998952 0.000962178 0.000824862 0.000809627 0.000962178 0.000918708 0 0 0.000377459 0.000419504 0 0 0.000419504 0.000418014 0.000377459 0.000419504 0.000639344 0.000669851 0.000419504 0.000418014 0.000669851 0.000618636 0 0 0.000418014 0.000586247 0 0 0.000586247 0 0.000418014 0.000586247 0.000618636 0.000799598 0.000586247 0 0.000799598 0 0.000639344 0.000669851 0.000809627 0.000810505 0.000669851 0.000618636 0.000810505 0.000717187 0.000809627 0.000810505 0.000918708 0.000892513 0.000810505 0.000717187 0.000892513 0.000771814 0.000618636 0.000799598 0.000717187 0.000906495 0.000799598 0 0.000906495 0 0.000717187 0.000906495 0.000771814 0.000970799 0.000906495 0 0.000970799 0 0.00109097 0.00104148 0.00125505 0.00118391 0.00104148 0.000998952 0.00118391 0.00111834 0.00125505 0.00118391 0.00138113 0.00129028 0.00118391 0.00111834 0.00129028 0.00120431 0.000998952 0.000962178 0.00111834 0.00105746 0.000962178 0.000918708 0.00105746 0.000989719 0.00111834 0.00105746 0.00120431 0.00112325 0.00105746 0.000989719 0.00112325 0.00103693 0.00138113 0.00129028 0.00147393 0.00136676 0.00129028 0.00120431 0.00136676 0.00126441 0.00147393 0.00136676 0.00153787 0.00141846 0.00136676 0.00126441 0.00141846 0.00130414 0.00120431 0.00112325 0.00126441 0.00116796 0.00112325 0.00103693 0.00116796 0.00106848 0.00126441 0.00116796 0.00130414 0.00119695 0.00116796 0.00106848 0.00119695 0.00108893 0.000918708 0.000892513 0.000989719 0.000943517 0.000892513 0.000771814 0.000943517 0.000806355 0.000989719 0.000943517 0.00103693 0.000977274 0.000943517 0.000806355 0.000977274 0.000830282 0.000771814 0.000970799 0.000806355 0.00101505 0.000970799 0 0.00101505 0 0.000806355 0.00101505 0.000830282 0.00104755 0.00101505 0 0.00104755 0 0.00103693 0.000977274 0.00106848 0.00100036 0.000977274 0.000830282 0.00100036 0.000847641 0.00106848 0.00100036 0.00108893 0.00101602 0.00100036 0.000847641 0.00101602 0.000860276 0.000830282 0.00104755 0.000847641 0.00107227 0.00104755 0 0.00107227 0 0.000847641 0.00107227 0.000860276 0.0010912 0.00107227 0 0.0010912 0 0.00284189 0.00263273 0.00290585 0.00269934 0.00263273 0.00243934 0.00269934 0.00250672 0.00290585 0.00269934 0.00291057 0.00271274 0.00269934 0.00250672 0.00271274 0.00252637 0.00243934 0.00226044 0.00250672 0.00232681 0.00226044 0.00209477 0.00232681 0.00215843 0.00250672 0.00232681 0.00252637 0.00235045 0.00232681 0.00215843 0.00235045 0.00218399 0.00291057 0.00271274 0.00286205 0.00267831 0.00271274 0.00252637 0.00267831 0.00250314 0.00286205 0.00267831 0.00276737 0.00260231 0.00267831 0.00250314 0.00260231 0.00244261 0.00252637 0.00235045 0.00250314 0.00233581 0.00235045 0.00218399 0.00233581 0.0021756 0.00250314 0.00233581 0.00244261 0.0022879 0.00233581 0.0021756 0.0022879 0.00213779 0.00209477 0.00194103 0.00215843 0.00200039 0.00194103 0.00179789 0.00200039 0.00185153 0.00215843 0.00200039 0.00218399 0.00202602 0.00200039 0.00185153 0.00202602 0.00187564 0.00179789 0.00166397 0.00185153 0.00171072 0.00166397 0.00153787 0.00171072 0.0015769 0.00185153 0.00171072 0.00187564 0.00173203 0.00171072 0.0015769 0.00173203 0.00159456 0.00218399 0.00202602 0.0021756 0.00202183 0.00202602 0.00187564 0.00202183 0.0018739 0.0021756 0.00202183 0.00213779 0.00199191 0.00202183 0.0018739 0.00199191 0.00185003 0.00187564 0.00173203 0.0018739 0.00173137 0.00173203 0.00159456 0.00173137 0.00159399 0.0018739 0.00173137 0.00185003 0.00171205 0.00173137 0.00159399 0.00171205 0.00157813 0.00276737 0.00260231 0.00263439 0.00249158 0.00260231 0.00244261 0.00249158 0.00235079 0.00263439 0.00249158 0.00247138 0.00235328 0.00249158 0.00235079 0.00235328 0.00223394 0.00244261 0.0022879 0.00235079 0.00221204 0.0022879 0.00213779 0.00221204 0.00207527 0.00235079 0.00221204 0.00223394 0.00211369 0.00221204 0.00207527 0.00211369 0.00199284 0.00247138 0.00235328 0.00228659 0.00219459 0.00235328 0.00223394 0.00219459 0.00209826 0.00228659 0.00219459 0.00208796 0.00202236 0.00219459 0.00209826 0.00202236 0.00194971 0.00223394 0.00211369 0.00209826 0.00199826 0.00211369 0.00199284 0.00199826 0.00189519 0.00209826 0.00199826 0.00194971 0.00187092 0.00199826 0.00189519 0.00187092 0.00178678 0.00213779 0.00199191 0.00207527 0.00194047 0.00199191 0.00185003 0.00194047 0.00180772 0.00207527 0.00194047 0.00199284 0.00187168 0.00194047 0.00180772 0.00187168 0.00175061 0.00185003 0.00171205 0.00180772 0.00167729 0.00171205 0.00157813 0.00167729 0.00154968 0.00180772 0.00167729 0.00175061 0.00163019 0.00167729 0.00154968 0.00163019 0.00151122 0.00199284 0.00187168 0.00189519 0.0017896 0.00187168 0.00175061 0.0017896 0.00168216 0.00189519 0.0017896 0.00178678 0.00169809 0.0017896 0.00168216 0.00169809 0.00160566 0.00175061 0.00163019 0.00168216 0.00157368 0.00163019 0.00151122 0.00157368 0.00146519 0.00168216 0.00157368 0.00160566 0.00151052 0.00157368 0.00146519 0.00151052 0.00141386 0.00153787 0.00141846 0.0015769 0.00144947 0.00141846 0.00130414 0.00144947 0.00132744 0.0015769 0.00144947 0.00159456 0.00146309 0.00144947 0.00132744 0.00146309 0.00133725 0.00130414 0.00119695 0.00132744 0.00121369 0.00119695 0.00108893 0.00121369 0.00110088 0.00132744 0.00121369 0.00133725 0.00122052 0.00121369 0.00110088 0.00122052 0.00110599 0.00159456 0.00146309 0.00159399 0.00146213 0.00146309 0.00133725 0.00146213 0.00133587 0.00159399 0.00146213 0.00157813 0.00144902 0.00146213 0.00133587 0.00144902 0.00132523 0.00133725 0.00122052 0.00133587 0.00121917 0.00122052 0.00110599 0.00121917 0.00110539 0.00133587 0.00121917 0.00132523 0.00121105 0.00121917 0.00110539 0.00121105 0.0011 0.00108893 0.00101602 0.00110088 0.00102596 0.00101602 0.000860276 0.00102596 0.000869129 0.00110088 0.00102596 0.00110599 0.00103118 0.00102596 0.000869129 0.00103118 0.000874764 0.000860276 0.0010912 0